 --invoking executable--
/opt/cfour/2.1/bin/xjoda


   *************************************************************************
         <<<     CCCCCC     CCCCCC   |||     CCCCCC     CCCCCC   >>>
       <<<      CCC        CCC       |||    CCC        CCC         >>>
      <<<      CCC        CCC        |||   CCC        CCC            >>>
    <<<        CCC        CCC        |||   CCC        CCC              >>>
      <<<      CCC        CCC        |||   CCC        CCC            >>>
       <<<      CCC        CCC       |||    CCC        CCC         >>>
         <<<     CCCCCC     CCCCCC   |||     CCCCCC     CCCCCC   >>>
   *************************************************************************

     ****************************************************************
     * CFOUR Coupled-Cluster techniques for Computational Chemistry *
     ****************************************************************


   Department of Chemistry                Institut fuer Physikalische Chemie
   University of Florida                  Universitaet Mainz
   Gainesville, FL 32611, USA             D-55099 Mainz, Germany

   Department of Chemistry                Fakultaet fuer Chemie und Biowiss.
   Johns Hopkins University               Karlsruher Institut fuer Technologie
   Baltimore, MD 21218, USA               D-76131 Karlsruhe, Germany

   Department of Chemistry                Department of Physical Chemistry
   Southern Methodist University          Eotvos Lorand University
   Dallas, TX 75275, USA                  H-1053 Budapest, Hungary


                       Version 2.1

                     node007                                           
                     Fri 13 Jun 2025 12:00:46 PM PDT                   
                     integer*8 version is running

********************************************************************************
*                          Input from ZMAT file                                *
********************************************************************************
SPE on FeCO5                                                                    
Fe                                                                              
C 1 rFeCAx                                                                      
C 1 rFeCEq 2 a90                                                                
C 1 rFeCEq 3 a120 2 dn90                                                        
C 1 rFeCEq 3 a120 2 d90                                                         
C 1 rFeCAx 3 a90 4 dn90                                                         
O 1 rFeOAx 3 a90 4 d90                                                          
O 1 rFeOAx 3 a90 4 dn90                                                         
O 1 rFeOEq 2 a90 3 d0                                                           
O 1 rFeOEq 2 a90 4 d0                                                           
O 1 rFeOEq 2 a90 5 d0                                                           
                                                                                
rFeCAx =    1.829565855794663                                                   
rFeCEq =    1.830427937707052                                                   
rFeOAx =    2.983800083699976                                                   
rFeOEq =    2.987529988574558                                                   
a90    =   90.00000                                                             
a120   =  120.00000                                                             
dn90   =  -90.00000                                                             
d0     =    0.00000                                                             
d90    =   90.00000                                                             
                                                                                
*ACES2(CALC = CCSD                                                              
     EXCITE = EOMEE                                                             
      BASIS = SPECIAL                                                           
     DROPMO = 1>15                                                              
  RELATIVTY = X2C1E                                                             
 OCCUPATION = 23-11-11-3                                                        
LOCK_ORBOCC = ON                                                                
 ESTATE_SYM = 8/0/0/0                                                           
   SCF_CONV = 10                                                                
    CC_CONV = 8                                                                 
 LINEQ_CONV = 8                                                                 
   SCF_MAXCYC = 500                                                             
    CC_MAXCYC = 500                                                             
 LINEQ_MAXCYC = 500                                                             
       MEMORY = 32                                                              
     MEM_UNIT = GB)                                                             
                                                                                
Fe:cc-pVDZ                                                                      
C:cc-pVDZ                                                                       
C:cc-pVDZ                                                                       
C:cc-pVDZ                                                                       
C:cc-pVDZ                                                                       
C:cc-pVDZ                                                                       
O:cc-pVDZ                                                                       
O:cc-pVDZ                                                                       
O:cc-pVDZ                                                                       
O:cc-pVDZ                                                                       
O:cc-pVDZ                                                                       
                                                                                
********************************************************************************
    -------------------------------------------------------------------
                    CFOUR Control Parameters 
    -------------------------------------------------------------------
        External           Internal           Value            Units
          Name               Name
    -------------------------------------------------------------------
       ABCDTYPE             IABCDT         STANDARD    [  0]    ***   
       ANHARMONIC           IANHAR         OFF         [  0]    ***   
       ANH_ALGORIT          IANALG         STANDARD    [  0]    ***   
       ANH_DERIVAT          IANDER         SECOND      [  1]    ***   
       ANH_MODE             ANHMOD         VIBRATION   [  0]    ***   
       ANH_STEPSIZ          ICUBST             50000          x 10-6  
       ANH_SYMMETR          IANHSM         ABELIAN     [  0]    ***   
       AO_LADDERS           IAOLAD         SINGLEPASS  [  1]    ***   
       AV_SCF               IAVSCF         OFF         [  0]    ***   
       BASIS                IBASIS         SPECIAL     [  0]    ***   
       BOTHVECTORS          BOTHVC         OFF         [  0]    ***   
       BOX_POTENT           IPIAB          OFF         [  0]    ***   
       BREIT                IBREIT         OFF         [  0]    ***   
       BRUCK_CONV           IBRTOL          10D-  4             ***   
       BRUECKNER            IBRKNR         OFF         [  0]    ***   
       BUFFERSIZE           IBUFFS              4096            ***   
       CACHE_RECS           ICHREC             10               ***   
       CALCLEVEL            ICLLVL         CCSD        [ 10]    ***   
       CCORBOPT             ICCORB         OFF         [  0]  x 0.01  
       CC_CONV              ICCCNV          10D-  8             ***   
       CC_EXPORDER          ICCEOR              5               ***   
       CC_EXTRAPOL          ICCEXT         DIIS        [  1]    ***   
       CC_GUESS             ICCGES         MP2         [  0]    ***   
       CC_MAXCYC            ICCCYC            500              cycles 
       CC_PROGRAM           ICCPRO         VCC         [  0]    ***   
       CHARGE               ICHRGE              0               ***   
       CHOLESKY             ICHOLE         OFF         [  0]    ***   
       CIS_CONV             ICISTL              5               ***   
       COMM_SIZE            IPSIZE            ***               ***   
       CONSTANT             ICONST         OLD         [  1]    ***   
       CONTINUUM            ICONTU         NONE        [  0]    ***   
       CONTRACTION          ICNTYP         GENERAL     [  1]    ***   
       COORDINATES          ICOORD         INTERNAL    [  0]    ***   
       CPHF_CONVER          ICPHFT          10D- 16             ***   
       CPHF_MAXCYC          ICPHFC             64              cycles 
       CUBIC                ICUBIC         OFF         [  0]    ***   
       CURVILINEAR          ICURVY         OFF         [  0]    ***   
       DBOC                 IDBOC          OFF         [  0]    ***   
       DCT                  IDCT           OFF         [  0]    ***   
       DERIV_LEV            IDRLVL         ZERO        [  0]    ***   
       DEVMEM_SIZE          IDVMEM         *********           MByte  
       DIAG_MRCC            IEOMST          10D-  0             ***   
       DIFF_TYPE            IDIFTY         RELAXED     [  0]    ***   
       DIRECT               IDIRCT         OFF         [  0]    ***   
       DROPMO               IDRPMO   1,  2,  3,  4,  5,  6,  7,  8,
                                     9, 10, 11, 12, 13, 14, 15,
       ECP                  IECP           OFF         [  0]    ***   
       EIGENVECTOR          IVEC                1               ***   
       EL_ANHARM            IELANH         OFF         [  0]    ***   
       EOMFOLLOW            IEOMSR         ENERGY      [  0]    ***   
       EOMIP                IEOMIP         OFF         [  0]    ***   
       EOMLEVEL             HBARFM         SAME        [  0]    ***   
       EOM_MRCC             IMRCCE         NEW         [  1]    ***   
       EOM_NONIT            EOMNON         OFF         [  0]    ***   
       EOM_NSING            IEOMSI          10D-  0             ***   
       EOM_NSTATES          IMRCCD         DAVIDSON    [  0]    ***   
       EOM_NTRIP            IEOMTR          10D-  0             ***   
       EOM_ORDER            IEXORD         ENERGY      [  0]    ***   
       EOM_PROPSTA          IEOMST              0               ***   
       ESTATE_CONV          IEXTOL          10D-  5             ***   
       ESTATE_DIAG          IEXDIG         ITERATIVE   [  0]    ***   
       ESTATE_LOCK          IESLOC         ON          [  1]    ***   
       ESTATE_MAXC          IEXMXC             40               ***   
       ESTATE_PROP          IEXPRP         OFF         [  0]    ***   
       ESTATE_SYM           IEXSYM   8,  0,  0,  0,
       EVAL_HESS            IRECAL              0            # of cyc.
       EXCITATION           IEXCIT              0               ***   
       EXCITE               IEXCIT         EOMEE       [  3]    ***   
       EXTERN_POT           IEXPOT         OFF         [  0]    ***   
       FCGRADNEW            IFCGNW         OFF         [  0]    ***   
       FC_FIELD             IFINFC              0             x 10-6  
       FD_CALTYPE           IFDCAL         GRADONLY    [  0]    ***   
       FD_PROJECT           IFDPRJ         OFF         [  1]    ***   
       FD_STEPSIZE          IDISFD              0            10-4 bohr
       FD_USEGROUP          IFDGRP         FULL        [  0]    ***   
       FILE_RECSIZ          IFLREC              4096           words  
       FINITE_PERT          IFIPER              0             x 10-6  
       FIXGEOM              IFIXGM         OFF         [  0]    ***   
       FOCK                 IFOCK          AO          [  1]    ***   
       FREQ_ALGORI          IVIALG         STANDARD    [  0]    ***   
       FROZEN_CORE          IFROCO         OFF         [  0]    ***   
       GAMMA_ABCD           IGABCD         STORE       [  0]    ***   
       GAMMA_ABCI           IGABCI         STORE       [  0]    ***   
       GENBAS_1             IGNBS1              0               ***   
       GENBAS_2             IGNBS2              0               ***   
       GENBAS_3             IGNBS3              0               ***   
       GENBAS_4             IGNBS4              0               ***   
       GEO_CONV             ICONTL              5              H/bohr 
       GEO_MAXCYC           IOPTCY             50               ***   
       GEO_MAXSTEP          IMXSTP            300            millibohr
       GEO_METHOD           INR            SINGLE_POINT[  5]    ***   
       GIAO                 IGIAO          OFF         [  1]    ***   
       GIMIC                IGIMIC         OFF         [  0]    ***   
       GRID                 IGRID          OFF         [  0]    ***   
       GRID_ALGO            IGALGO         SERIAL      [  0]    ***   
       GUESS                IGUESS         MOREAD      [  0]    ***   
       HBAR                 IHBAR          ON          [  1]    ***   
       HESS_TYPE            IHESTP         SCF         [  0]    ***   
       HF2_FILE             IHF2Fl         USE         [  1]    ***   
       HFSTABILITY          ISTABL         OFF         [  0]    ***   
       INCORE               INCORE         OFF         [  0]    ***   
       INPUT_MRCC           IMRCC          ON          [  1]    ***   
       INTEGRALS            INTTYP         VMOL        [  1]    ***   
       JODA_PRINT           IJPRNT              0               ***   
       KEYWORD_OUT          IDMPKW         NO          [  0]    ***   
       LINDEP_TOL           ILINDP              8               ***   
       LINEQ_CONV           IZTACN          10D-  8           cycles  
       LINEQ_EXPOR          ILMAXD              5               ***   
       LINEQ_MAXCY          ILMAXC            500               ***   
       LINEQ_TYPE           ILTYPE         DIIS        [  1]    ***   
       LOCK_ORBOCC          ILOCOC         ON          [  1]    ***   
       MEMORY_SIZE          IMEMSZ         *********           words  
       MEM_UNIT             IMEMU          GB          [  3]    ***   
       MRCC                 IMRCCC         OFF         [  0]    ***   
       MULTIPLICTY          IMULTP              1               ***   
       NACOUPLING           IVCOUP         OFF         [  0]    ***   
       NEGEVAL              IDIE           ABORT       [  0]    ***   
       NEWNORM              INEWNO         OFF         [  0]    ***   
       NON-HF               INONHF         OFF         [  0]    ***   
       NTOP_TAMP            ITOPT2             15               ***   
       NUC_MODEL            INUCMO         POINT       [  0]    ***   
       OCCUPATION           IOCCU   23, 11, 11,  3,
       OPEN-SHELL           IOPEN          SPIN-ORBITAL[  0]    ***   
       OPTVIB               IOPTVB         OFF         [  0]    ***   
       ORBITALS             IORBTP         STANDARD    [  0]    ***   
       PARALLEL             IPARAL         ON          [  1]    ***   
       PARA_INT             IPINTS         ON          [  1]    ***   
       PARA_PRINT           IPPRIN              0               ***   
       PERT_ORB             IPTORB         STANDARD    [  0]    ***   
       POINTS               IGRDFD              0               ***   
       PRINT                IPRNT               0               ***   
       PROPS                IPROPS         OFF         [  0]    ***   
       PROP_INTEGR          IINTYP         INTERNAL    [  0]    ***   
       PSI                  IPSI           OFF         [  0]    ***   
       QC_ALG               IQCALG         FLM         [  0]    ***   
       QC_LINALG            IQCLIN         TRIDIAG     [  2]    ***   
       QC_MAXCYC            IQCMAX          10D-100           cycles  
       QC_MAXSCFCY          IQCMSC          10D- 15           cycles  
       QC_RTRUST            IQCRTR          10D-  0           x 10-3  
       QC_SKIPSCF           IQCSKI         OFF         [  0]    ***   
       QC_START             IQCSTA          10D-  1             ***   
       QRHFGUESS            IQGUES         OFF         [  0]    ***   
       QUARTIC              IQUART         OFF         [  0]    ***   
       RAMAN_INT            IRAMIN         OFF         [  0]    ***   
       RAMAN_ORB            IRAMRE         UNRELAXED   [  0]    ***   
       RDO                  IRDOFM         OFF         [  0]    ***   
       REDUCE_REPR          REDREP         Ir          [  0]    ***   
       REFERENCE            IREFNC         RHF         [  0]    ***   
       RELATIVIST           IRELAT         X2C1E       [ 11]    ***   
       RELAX_DENS           IRDENS         OFF         [  0]    ***   
       RESET_FLAGS          IRESET         OFF         [  0]    ***   
       RESTART_CC           ICCRES         OFF         [  0]    ***   
       ROT_EVEC             ROTVEC              0               ***   
       SAVE_INTS            ISVINT         OFF         [  0]    ***   
       SCALE_ON             ISTCRT              0               ***   
       SCF_CONV             ISCFCV          10D- 10             ***   
       SCF_DAMPING          IDAMP               0             x 10-3  
       SCF_EXPORDE          IRPPOR              6               ***   
       SCF_EXPSTAR          IRPPLS              8               ***   
       SCF_EXTRAPO          IRPP           ON          [  1]    ***   
       SCF_MAXCYC           ISCFCY            500              cycles 
       SCF_NOSTOP           ISCFST         OFF         [  0]    ***   
       SCF_PRINT            ISCFPR              0               ***   
       SCF_PROG             ISCFPR         SCF         [  0]    ***   
       SD_FIELD             IFINSD              0             x 10-6  
       SOPERT               IPERSO         OFF         [  0]    ***   
       SPHERICAL            IDFGHI         ON          [  1]    ***   
       SPINORBIT            ISOCAL         OFF         [  0]    ***   
       SPINROTATIO          ISRCON         OFF         [  0]    ***   
       SPIN_FLIP            ISPFLP         OFF         [  0]    ***   
       SPIN_ORBIT           ISPORB         OFF         [  0]    ***   
       SPIN_SCAL            ISCSMP         OFF         [  0]    ***   
       STEEPSCALE           ISTPSC              1000          x 10-3  
       SUBGROUP             ISUBGP         DEFAULT     [  0]    ***   
       SUBGRPAXIS           ISBXYZ         X           [  0]    ***   
       SYMMETRY             ISYM           ON          [  0]    ***   
       SYM_CHECK            ISYMCK         OVERRIDE    [  1]    ***   
       T3_EXTRAPOL          IT3EXT         OFF         [  0]    ***   
       T4_EXTRAPOL          IT4EXP         OFF         [  0]    ***   
       TAMP_SUM             IEVERY              5               ***   
       TESTSUITE            ITESTS         OFF         [  0]    ***   
       THERMOCH             ITHERM         OFF         [  0]    ***   
       TOL_CHOLESK          ITOLCH          10D-  4             ***   
       TRANGRAD             IRESRM         OFF         [  0]    ***   
       TRANS_INV            ITRAIN         USE         [  0]    ***   
       TREAT_PERT           ITREAT         SIMULTANEOUS[  0]    ***   
       TRIP_ALGORI          ITRALG         NORMAL      [  0]    ***   
       UIJ_THRESHO          IUIJTH              1               ***   
       UNITS                IUNITS         ANGSTROM    [  0]    ***   
       UNOS                 IUNOS          OFF         [  0]    ***   
       UPDATE_HESS          IHUPDT         ON          [  1]    ***   
       VIBPHASE             ISETPH         STANDARD    [  0]    ***   
       VIBRATION            IVIB           NO          [  0]    ***   
       VIB_ALGORIT          IGEALG         STANDARD    [  0]    ***   
       VNATORB              IVNORB         OFF         [  0]    ***   
       VTRAN                IVTRAN         FULL/PARTIAL[  0]    ***   
       XFIELD               IXEFLD              0             x 10-6  
       XFORM_TOL            IXFTOL          10D- 11             ***   
       YFIELD               IYEFLD              0             x 10-6  
       ZFIELD               IZEFLD              0             x 10-6  
       ZSCALE_EXP           IZEXPS         OFF         [  0]    ***   
    -------------------------------------------------------------------
  11 entries found in Z-matrix 
   Job Title : SPE on FeCO5                                                                    
   There are  9 unique internal coordinates.
   Of these,  0 will be optimized.
   User supplied Z-matrix: 
--------------------------------------------------------------------------------
       SYMBOL    BOND      LENGTH    ANGLE     ANGLE     DIHED     ANGLE
                  TO      (ANGST)    WRT      (DEG)      WRT      (DEG)
--------------------------------------------------------------------------------
        Fe   
        C          1         rFeCA
        C          1         rFeCE      2        a90  
        C          1         rFeCE      3        a120       2        dn90 
        C          1         rFeCE      3        a120       2        d90  
        C          1         rFeCA      3        a90        4        dn90 
        O          1         rFeOA      3        a90        4        d90  
        O          1         rFeOA      3        a90        4        dn90 
        O          1         rFeOE      2        a90        3        d0   
        O          1         rFeOE      2        a90        4        d0   
        O          1         rFeOE      2        a90        5        d0   
                  *Initial values for internal coordinates* 
                      Name             Value
                        rFeCA           1.8295658558
                        rFeCE           1.8304279377
                        a90            90.0000000000
                        a120          120.0000000000
                        dn90          -90.0000000000
                        d90            90.0000000000
                        rFeOA           2.9838000837
                        rFeOE           2.9875299886
                        d0              0.0000000000
--------------------------------------------------------------------------------
  filter applied 
  filter applied 
   Rotational constants (in cm-1): 
          0.0263568807             0.0263568807             0.0307118455
   Rotational constants (in MHz): 
        790.1595147912           790.1595147912           920.7180943059
********************************************************************************
   The full molecular point group is D3h .
   The largest Abelian subgroup of the full molecular point group is C2v .
   The computational point group is C2v .
********************************************************************************
--------------------------------------------------------------------------------
   Analysis of internal coordinates specified by Z-matrix 
--------------------------------------------------------------------------------
   *The nuclear repulsion energy is  794.324169968254409 a.u.
   *There are   4 degrees of freedom within the tot. symm. molecular subspace.
   *Z-matrix requests optimization of   0 coordinates.
   *The optimization is constrained.
   *The following   4 parameters can have non-zero 
    derivatives within the totally symmetric subspace:
             rFeCE[ 4]  rFeCA[ 1]  rFeOE[25]  rFeOA[13]
   *The following   0 parameters are to be optimized:

   *The following coordinates must be varied in an  unconstrained optimization.
             rFeCE[ 4]  rFeCA[ 1]  rFeOE[25]  rFeOA[13]
--------------------------------------------------------------------------------


 ----------------------------------------------------------------
         Coordinates used in calculation (QCOMP) 
 ----------------------------------------------------------------
 Z-matrix   Atomic            Coordinates (in bohr)
  Symbol    Number           X              Y              Z
 ----------------------------------------------------------------
     FE       26         0.00000000     0.00000000     0.00000000
     C         6         0.00000000    -3.45737912     0.00000000
     C         6        -2.99558899     0.00000000    -1.72950411
     C         6        -0.00000000     0.00000000     3.45900822
     C         6         2.99558899    -0.00000000    -1.72950411
     C         6        -0.00000000     3.45737912     0.00000000
     O         8        -0.00000000    -5.63856615     0.00000000
     O         8        -0.00000000     5.63856615     0.00000000
     O         8        -4.88924571    -0.00000000    -2.82280733
     O         8        -0.00000000    -0.00000000     5.64561465
     O         8         4.88924571    -0.00000000    -2.82280733
 ----------------------------------------------------------------

   Interatomic distance matrix (Angstroms) 

                 FE            C             C             C             C    
                [ 1]        [ 2]        [ 3]        [ 4]        [ 5]
  FE   [ 1]     0.00000
  C    [ 2]     1.82957     0.00000
  C    [ 3]     1.83043     2.58801     0.00000
  C    [ 4]     1.83043     2.58801     3.17039     0.00000
  C    [ 5]     1.83043     2.58801     3.17039     3.17039     0.00000
  C    [ 6]     1.82957     3.65913     2.58801     2.58801     2.58801
  O    [ 7]     2.98380     1.15423     3.50050     3.50050     3.50050
  O    [ 8]     2.98380     4.81337     3.50050     3.50050     3.50050
  O    [ 9]     2.98753     3.50323     1.15710     4.21239     4.21239
  O    [10]     2.98753     3.50323     4.21239     1.15710     4.21239
  O    [11]     2.98753     3.50323     4.21239     4.21239     1.15710

                 C             O             O             O             O    
                [ 6]        [ 7]        [ 8]        [ 9]        [10]
  C    [ 6]     0.00000
  O    [ 7]     4.81337     0.00000
  O    [ 8]     1.15423     5.96760     0.00000
  O    [ 9]     3.50323     4.22237     4.22237     0.00000
  O    [10]     3.50323     4.22237     4.22237     5.17455     0.00000
  O    [11]     3.50323     4.22237     4.22237     5.17455     5.17455

                 O    
                [11]
  O    [11]     0.00000
 rotcon2
   Rotational constants (in cm-1): 
          0.0263568807             0.0307118455             0.0263568807
   Rotational constants (in MHz): 
        790.1595147912           920.7180943059           790.1595147912
  ECPDATA file not present.   Using default ECPDATA. 
  There are  183 basis functions.
 @GEOPT-W, Archive file not created for single-point calculation.
 @CHECKOUT-I, Total execution time (CPU/WALL):        1.27/       0.51 seconds.
--executable xjoda finished with status     0 in        0.55 seconds (walltime).
 --invoking executable--
/opt/cfour/2.1/bin/xvmol
 SERIAL VERSION OF MOLECULE STARTED
********************************************************************************
                    INPUT FROM MOL FILE
********************************************************************************
INTGRL        1    0    1    0    0    0    0    0    0                         
         *** CFOUR Program System (Release V0.1) ***                            
SPE on FeCO5                                                                    
    7    2 X  Y       0.10E-08              0    0                              
   9999.00      3.00                                                            
         26.00000000    1    4    1    1    1    1                              
FE#1   0.000000000000000   0.000000000000000   0.000000000000000                
   20    6                                                                      
   4316265.0000000000        8.0488029999999998E-006  -4.1559539999999997E-006  
   646342.40000000002        6.2583059999999998E-005  -3.2314010000000003E-005  
   147089.70000000001        3.2902389999999999E-004  -1.6995250000000000E-004  
   41661.519999999997        1.3873550000000001E-003  -7.1713690000000004E-004  
   13590.770000000000        5.0232560000000002E-003  -2.6036250000000000E-003  
   4905.7500000000000        1.6101399999999998E-002  -8.3991090000000001E-003  
   1912.7460000000001        4.5900339999999998E-002  -2.4341089999999999E-002  
   792.60429999999997       0.11361540000000001       -6.2519480000000002E-002  
   344.80650000000003       0.22838690000000000      -0.13659289999999999       
   155.89990000000000       0.32211590000000001      -0.23127070000000000       
   72.230909999999994       0.23836610000000000      -0.23837340000000001       
   32.725059999999999        7.4046669999999995E-002   3.1238370000000001E-002  
   15.667619999999999        9.2141970000000004E-002  0.50868179999999996      -
   7.5034830000000001        9.3397900000000006E-002  0.49876949999999998      -
   3.3122229999999999        1.5739650000000001E-002   9.0335520000000002E-002  
   1.5584709999999999       -4.1866819999999998E-004  -6.0053370000000003E-003  
  0.68391400000000002        5.3763179999999999E-005   2.3124539999999999E-004  
  0.14675700000000000       -3.8166539999999997E-005  -5.6436799999999999E-004  
   7.0583000000000007E-002   4.3196030000000000E-005   4.9922599999999997E-004  
   3.1448999999999998E-002  -3.4010190000000000E-006  -1.0152930000000000E-004  
   16    5                                                                      
   17745.689999999999        4.1000000000000000E-005  -1.5000000000000000E-005  
   4200.7209999999995        3.6900000000000002E-004  -1.2999999999999999E-004  
   1364.4290000000001        2.1289999999999998E-003  -7.5100000000000004E-004  
   522.08060000000000        9.3690000000000006E-003  -3.3289999999999999E-003  
   221.45949999999999        3.3097000000000001E-002  -1.1912000000000001E-002  
   100.90960000000000        9.4431000000000001E-002  -3.4932999999999999E-002  
   48.401150000000001       0.20807700000000001       -7.9989000000000005E-002  
   23.985360000000000       0.33233299999999999      -0.13463600000000001       
   12.182499999999999       0.33298699999999998      -0.13859800000000000       
   6.2422979999999999       0.15684300000000001        3.0277999999999999E-002  
   3.1109439999999999        2.1548999999999999E-002  0.33321600000000001      -
   1.5099579999999999       -2.0950000000000001E-003  0.45615299999999998      -
  0.71084499999999995       -1.7390000000000001E-003  0.28505100000000000      -
  0.27318999999999999       -2.9999999999999997E-004   4.6143999999999998E-002  
  0.10423300000000001        2.9000000000000000E-005  -3.2490000000000002E-003  
   3.8290999999999999E-002  -1.1000000000000000E-005   1.3569999999999999E-003  
    8    3                                                                      
   113.34399999999999        3.5300000000000002E-003  -3.8899999999999998E-003  
   33.641399999999997        2.5784000000000001E-002  -2.8441999999999999E-002  
   12.331000000000000        9.9118999999999999E-002 -0.11242900000000000       
   4.9947800000000004       0.23907300000000001      -0.27425699999999997       
   2.0728000000000000       0.35719899999999999      -0.31554599999999999       
  0.83075299999999996       0.36218800000000001        5.7109000000000000E-002  
  0.30917800000000001       0.23646100000000000       0.56360399999999999       
  0.10013000000000000        6.0117999999999998E-002  0.38463700000000001       
    2    1                                                                      
   3.2242999999999999       0.42224899999999999                                 
  0.77580000000000005       0.77146800000000004                                 
          6.00000000    1    3    1    1    1                                   
C #2   0.000000000000000  -3.457379119003190   0.000000000000000                
    9    3                                                                      
   6665.0000000000000        6.9200000000000002E-004  -1.4600000000000000E-004  
   1000.0000000000000        5.3290000000000004E-003  -1.1540000000000001E-003  
   228.00000000000000        2.7077000000000000E-002  -5.7250000000000001E-003  
   64.709999999999994       0.10171800000000000       -2.3311999999999999E-002  
   21.059999999999999       0.27473999999999998       -6.3954999999999998E-002  
   7.4950000000000001       0.44856400000000002      -0.14998100000000000       
   2.7970000000000002       0.28507399999999999      -0.12726199999999999       
  0.52149999999999996        1.5204000000000001E-002  0.54452900000000004       
  0.15959999999999999       -3.1909999999999998E-003  0.58049600000000001       
    4    2                                                                      
   9.4390000000000001        3.8108999999999997E-002   0.0000000000000000       
   2.0019999999999998       0.20948000000000000        0.0000000000000000       
  0.54559999999999997       0.50855700000000004        0.0000000000000000       
  0.15170000000000000       0.46884199999999998        1.0000000000000000       
    1    1                                                                      
  0.55000000000000004        1.0000000000000000                                 
          6.00000000    1    3    1    1    1                                   
C #3  -2.995588988735656   0.000000000000000  -1.729504109028010                
    9    3                                                                      
   6665.0000000000000        6.9200000000000002E-004  -1.4600000000000000E-004  
   1000.0000000000000        5.3290000000000004E-003  -1.1540000000000001E-003  
   228.00000000000000        2.7077000000000000E-002  -5.7250000000000001E-003  
   64.709999999999994       0.10171800000000000       -2.3311999999999999E-002  
   21.059999999999999       0.27473999999999998       -6.3954999999999998E-002  
   7.4950000000000001       0.44856400000000002      -0.14998100000000000       
   2.7970000000000002       0.28507399999999999      -0.12726199999999999       
  0.52149999999999996        1.5204000000000001E-002  0.54452900000000004       
  0.15959999999999999       -3.1909999999999998E-003  0.58049600000000001       
    4    2                                                                      
   9.4390000000000001        3.8108999999999997E-002   0.0000000000000000       
   2.0019999999999998       0.20948000000000000        0.0000000000000000       
  0.54559999999999997       0.50855700000000004        0.0000000000000000       
  0.15170000000000000       0.46884199999999998        1.0000000000000000       
    1    1                                                                      
  0.55000000000000004        1.0000000000000000                                 
          6.00000000    1    3    1    1    1                                   
C #4  -0.000000000000001   0.000000000000000   3.459008218056020                
    9    3                                                                      
   6665.0000000000000        6.9200000000000002E-004  -1.4600000000000000E-004  
   1000.0000000000000        5.3290000000000004E-003  -1.1540000000000001E-003  
   228.00000000000000        2.7077000000000000E-002  -5.7250000000000001E-003  
   64.709999999999994       0.10171800000000000       -2.3311999999999999E-002  
   21.059999999999999       0.27473999999999998       -6.3954999999999998E-002  
   7.4950000000000001       0.44856400000000002      -0.14998100000000000       
   2.7970000000000002       0.28507399999999999      -0.12726199999999999       
  0.52149999999999996        1.5204000000000001E-002  0.54452900000000004       
  0.15959999999999999       -3.1909999999999998E-003  0.58049600000000001       
    4    2                                                                      
   9.4390000000000001        3.8108999999999997E-002   0.0000000000000000       
   2.0019999999999998       0.20948000000000000        0.0000000000000000       
  0.54559999999999997       0.50855700000000004        0.0000000000000000       
  0.15170000000000000       0.46884199999999998        1.0000000000000000       
    1    1                                                                      
  0.55000000000000004        1.0000000000000000                                 
          8.00000000    1    3    1    1    1                                   
O #5  -0.000000000000000  -5.638566150538215   0.000000000000000                
    9    3                                                                      
   11720.000000000000        7.1000000000000002E-004  -1.6000000000000001E-004  
   1759.0000000000000        5.4700000000000000E-003  -1.2630000000000000E-003  
   400.80000000000001        2.7837000000000001E-002  -6.2670000000000000E-003  
   113.70000000000000       0.10480000000000000       -2.5715999999999999E-002  
   37.030000000000001       0.28306199999999998       -7.0924000000000001E-002  
   13.270000000000000       0.44871899999999998      -0.16541100000000000       
   5.0250000000000004       0.27095200000000003      -0.11695500000000000       
   1.0129999999999999        1.5458000000000000E-002  0.55736799999999997       
  0.30230000000000001       -2.5850000000000001E-003  0.57275900000000002       
    4    2                                                                      
   17.699999999999999        4.3018000000000001E-002   0.0000000000000000       
   3.8540000000000001       0.22891300000000001        0.0000000000000000       
   1.0460000000000000       0.50872799999999996        0.0000000000000000       
  0.27529999999999999       0.46053100000000002        1.0000000000000000       
    1    1                                                                      
   1.1850000000000001        1.0000000000000000                                 
          8.00000000    1    3    1    1    1                                   
O #6  -4.889245707483187  -0.000000000000000  -2.822807325349641                
    9    3                                                                      
   11720.000000000000        7.1000000000000002E-004  -1.6000000000000001E-004  
   1759.0000000000000        5.4700000000000000E-003  -1.2630000000000000E-003  
   400.80000000000001        2.7837000000000001E-002  -6.2670000000000000E-003  
   113.70000000000000       0.10480000000000000       -2.5715999999999999E-002  
   37.030000000000001       0.28306199999999998       -7.0924000000000001E-002  
   13.270000000000000       0.44871899999999998      -0.16541100000000000       
   5.0250000000000004       0.27095200000000003      -0.11695500000000000       
   1.0129999999999999        1.5458000000000000E-002  0.55736799999999997       
  0.30230000000000001       -2.5850000000000001E-003  0.57275900000000002       
    4    2                                                                      
   17.699999999999999        4.3018000000000001E-002   0.0000000000000000       
   3.8540000000000001       0.22891300000000001        0.0000000000000000       
   1.0460000000000000       0.50872799999999996        0.0000000000000000       
  0.27529999999999999       0.46053100000000002        1.0000000000000000       

Running with 32 threads/proc

    1    1                                                                      
   1.1850000000000001        1.0000000000000000                                 
          8.00000000    1    3    1    1    1                                   
O #7  -0.000000000000000  -0.000000000000000   5.645614650699281                
    9    3                                                                      
   11720.000000000000        7.1000000000000002E-004  -1.6000000000000001E-004  
   1759.0000000000000        5.4700000000000000E-003  -1.2630000000000000E-003  
   400.80000000000001        2.7837000000000001E-002  -6.2670000000000000E-003  
   113.70000000000000       0.10480000000000000       -2.5715999999999999E-002  
   37.030000000000001       0.28306199999999998       -7.0924000000000001E-002  
   13.270000000000000       0.44871899999999998      -0.16541100000000000       
   5.0250000000000004       0.27095200000000003      -0.11695500000000000       
   1.0129999999999999        1.5458000000000000E-002  0.55736799999999997       
  0.30230000000000001       -2.5850000000000001E-003  0.57275900000000002       
    4    2                                                                      
   17.699999999999999        4.3018000000000001E-002   0.0000000000000000       
   3.8540000000000001       0.22891300000000001        0.0000000000000000       
   1.0460000000000000       0.50872799999999996        0.0000000000000000       
  0.27529999999999999       0.46053100000000002        1.0000000000000000       
    1    1                                                                      
   1.1850000000000001        1.0000000000000000                                 
FINISH                                                                          

********************************************************************************
 ONE- AND TWO-ELECTRON INTEGRALS OVER SYMMETRY-ADAPTED AOS ARE CALCULATED.

  SPHERICAL HARMONICS ARE USED.
  
  INTEGRALS LESS THAN  0.10E-13 ARE NEGLECTED.

  NUCLEAR REPULSION ENERGY :  794.3241699683 A.U.
  @MOLECU-I, ONE ELECTRON INTEGRALS (CPU/WALL):        1.44/       0.09 SECONDS.
  @TWOEL-I,    4283576 INTEGRALS OF SYMMETRY TYPE  I I I I
  @TWOEL-I,   13298506 INTEGRALS OF SYMMETRY TYPE  I J I J
  @TWOEL-I,    6960296 INTEGRALS OF SYMMETRY TYPE  I I J J
  @TWOEL-I,    8577160 INTEGRALS OF SYMMETRY TYPE  I J K L
  @TWOEL-I, TOTAL NUMBER OF 2-E INTEGRALS   33119538.
  @MOLECU-I, TWO ELECTRON INTEGRALS (CPU/WALL):       52.60/      17.26 SECONDS.
 @CHECKOUT-I, Total execution time (CPU/WALL):       54.15/      17.35 seconds.
--executable xvmol finished with status     0 in       17.39 seconds (walltime).
 --invoking executable--
/opt/cfour/2.1/bin/xvmol2ja
 @GETMEM-I,  Allocated   30517 MB of main memory.
 @CHECKOUT-I, Total execution time (CPU/WALL):        0.38/       0.03 seconds.
--executable xvmol2ja finished with status     0 in        0.06 seconds (walltime).
  a 
 --invoking executable--
/opt/cfour/2.1/bin/xvdint
 @GETMEM-I,  Allocated   30517 MB of main memory.
 One- and two-electron integral derivatives are calculated
 Spherical gaussians are used.
 Evaluated one-electron integrals:   dipole integrals
  keyword missing for gradient integrals in sfree
  pVp integrals for spin-free DHF
  derivative pVp integrals for spin-free DHF
 Evaluation of 1e integral derivatives required   22.49 seconds.
 Evaluation of 2e integral derivatives required    0.00 seconds.


 @CHECKOUT-I, Total execution time (CPU/WALL):       22.50/      14.47 seconds.
--executable xvdint finished with status     0 in       15.66 seconds (walltime).
 --invoking executable--
/opt/cfour/2.1/bin/xvpropx2c
 @GETMEM-I,  Allocated   30517 MB of main memory.
 @CHECKOUT-I, Total execution time (CPU/WALL):        6.69/       0.38 seconds.
--executable xvpropx2c finished with status     0 in        0.42 seconds (walltime).
 --invoking executable--
/opt/cfour/2.1/bin/xvmol2ja
 @GETMEM-I,  Allocated   30517 MB of main memory.
 @CHECKOUT-I, Total execution time (CPU/WALL):        0.31/       0.03 seconds.
--executable xvmol2ja finished with status     0 in        0.04 seconds (walltime).
 --invoking executable--
/opt/cfour/2.1/bin/xvscf
  There are  183 functions in the AO basis.

  There are 4 irreducible representations.

       Irrep        # of functions
         1                 73
         2                 44
         3                 44
         4                 22


  Parameters for SCF calculation: 
        SCF reference function:  RHF  
  Maximum number of iterations:  500
     Full symmetry point group: D3h 
     Computational point group: C2v 
        Initial density matrix: MOREAD                 
     SCF convergence tolerance: 10**(-10)
  DIIS convergence acceleration:  ON
          Latest start for DIIS:   8
                     DIIS order:   6

     Alpha population by irrep:  23   11   11    3
      Beta population by irrep:  23   11   11    3


  Memory information:    1346178 words required.
  Fock matrices are constructed from AO integral file.
 @GETMEM-I,  Allocated      10 MB of main memory.
  Initialization and symmetry analysis required      0.005 seconds.

 total no. of electrons in initial guess :   0.0000000000000000     
  --------------------------------------------------------------------
  Iteration         Total Energy            Largest Density Difference
  --------------------------------------------------------------------
       0           794.324169968254751              0.0000000000D+00
   current occupation vector 
    23 11 11  3
    23 11 11  3
       1         -1396.775594542177259              0.9511377007D+03
   current occupation vector 
    23 11 11  3
    23 11 11  3
       2         -1260.765683043055105              0.9151135069D+03
   current occupation vector 
    23 11 11  3
    23 11 11  3
       3         -1392.577319310062649              0.9592762095D+03
   current occupation vector 
    23 11 11  3
    23 11 11  3
       4         -1260.650380177666648              0.9692661916D+03
   current occupation vector 
    23 11 11  3
    23 11 11  3
       5         -1392.544225832083612              0.9713131105D+03
   current occupation vector 
    23 11 11  3
    23 11 11  3
       6         -1260.652310790266711              0.9714202630D+03
   current occupation vector 
    23 11 11  3
    23 11 11  3
       7         -1392.543924400860760              0.9714417539D+03
   current occupation vector 
    23 11 11  3
    23 11 11  3
       8         -1260.652336689539425              0.9714432869D+03
   current occupation vector 
    23 11 11  3
    23 11 11  3
       9         -1701.049299480183890              0.2970327959D+02
   current occupation vector 
    23 11 11  3
    23 11 11  3
      10         -1792.501128232830979              0.4901558709D+02
   current occupation vector 
    23 11 11  3
    23 11 11  3
      11         -1814.074301560012827              0.3069062398D+02
   current occupation vector 
    23 11 11  3
    23 11 11  3
      12         -1819.644376746050966              0.1463679830D+02
   current occupation vector 
    23 11 11  3
    23 11 11  3
      13         -1833.046454315769552              0.1662620215D+02
   current occupation vector 
    23 11 11  3
    23 11 11  3
      14         -1831.733627477769915              0.5781123084D+01
   current occupation vector 
    23 11 11  3
    23 11 11  3
      15         -1833.425570642472394              0.3906938424D+01
   current occupation vector 
    23 11 11  3
    23 11 11  3
      16         -1833.639287488766513              0.7539604148D+00
   current occupation vector 
    23 11 11  3
    23 11 11  3
      17         -1833.650877613242756              0.2739821863D+00
   current occupation vector 
    23 11 11  3
    23 11 11  3
      18         -1833.654192730488376              0.8079623259D-01
   current occupation vector 
    23 11 11  3
    23 11 11  3
      19         -1833.656612810921160              0.7739563121D-01
   current occupation vector 
    23 11 11  3
    23 11 11  3
      20         -1833.657372132048749              0.7776275660D-01
   current occupation vector 
    23 11 11  3
    23 11 11  3
      21         -1833.657660362874594              0.4094961141D-01
   current occupation vector 
    23 11 11  3
    23 11 11  3
      22         -1833.657849563830951              0.5050515577D-01
   current occupation vector 
    23 11 11  3
    23 11 11  3
      23         -1833.657898473950809              0.3777014359D-01
   current occupation vector 
    23 11 11  3
    23 11 11  3
      24         -1833.657903690990679              0.6622951135D-02
   current occupation vector 
    23 11 11  3
    23 11 11  3
      25         -1833.657904634871102              0.4435896013D-02
   current occupation vector 
    23 11 11  3
    23 11 11  3
      26         -1833.657904898835568              0.1970276553D-02
   current occupation vector 
    23 11 11  3
    23 11 11  3
      27         -1833.657905506411225              0.5182166459D-02
   current occupation vector 
    23 11 11  3
    23 11 11  3
      28         -1833.657906045149048              0.5502940740D-02
   current occupation vector 
    23 11 11  3
    23 11 11  3
      29         -1833.657906673206526              0.8316573728D-02
   current occupation vector 
    23 11 11  3
    23 11 11  3
      30         -1833.657907201391936              0.1027277450D-01
   current occupation vector 
    23 11 11  3
    23 11 11  3
      31         -1833.657907412286932              0.8850442097D-02
   current occupation vector 
    23 11 11  3
    23 11 11  3
      32         -1833.657907432743741              0.2088218998D-02
   current occupation vector 
    23 11 11  3
    23 11 11  3
      33         -1833.657907436437654              0.7973131155D-03
   current occupation vector 
    23 11 11  3
    23 11 11  3
      34         -1833.657907437238009              0.1236117261D-03
   current occupation vector 
    23 11 11  3
    23 11 11  3
      35         -1833.657907438268012              0.2330891709D-03
   current occupation vector 
    23 11 11  3
    23 11 11  3
      36         -1833.657907438529946              0.4888839940D-04
   current occupation vector 
    23 11 11  3
    23 11 11  3
      37         -1833.657907438557686              0.1148141401D-03
   current occupation vector 
    23 11 11  3
    23 11 11  3
      38         -1833.657907438594066              0.6170667308D-05
   current occupation vector 
    23 11 11  3
    23 11 11  3
      39         -1833.657907438561779              0.4142384535D-05
   current occupation vector 
    23 11 11  3
    23 11 11  3
      40         -1833.657907438590428              0.2004010518D-04
   current occupation vector 
    23 11 11  3
    23 11 11  3
      41         -1833.657907438617713              0.5827423221D-04
   current occupation vector 
    23 11 11  3
    23 11 11  3
      42         -1833.657907438645452              0.3597036055D-04
   current occupation vector 
    23 11 11  3
    23 11 11  3
      43         -1833.657907438665461              0.4095916219D-04
   current occupation vector 
    23 11 11  3
    23 11 11  3
      44         -1833.657907438672737              0.4171767889D-04
   current occupation vector 
    23 11 11  3
    23 11 11  3
      45         -1833.657907438670009              0.2076525544D-04
   current occupation vector 
    23 11 11  3
    23 11 11  3
      46         -1833.657907438646816              0.5982080676D-05
   current occupation vector 
    23 11 11  3
    23 11 11  3
      47         -1833.657907438670009              0.2745050963D-05
   current occupation vector 
    23 11 11  3
    23 11 11  3
      48         -1833.657907438672737              0.5268405055D-05
   current occupation vector 
    23 11 11  3
    23 11 11  3
      49         -1833.657907438660914              0.4829323625D-06
   current occupation vector 
    23 11 11  3
    23 11 11  3
      50         -1833.657907438655457              0.6586417225D-06
   current occupation vector 
    23 11 11  3
    23 11 11  3
      51         -1833.657907438675920              0.3860054472D-06
   current occupation vector 
    23 11 11  3
    23 11 11  3
      52         -1833.657907438654547              0.9118617861D-06
   current occupation vector 
    23 11 11  3
    23 11 11  3
      53         -1833.657907438668190              0.6930779168D-06
   current occupation vector 
    23 11 11  3
    23 11 11  3
      54         -1833.657907438654547              0.2378979715D-06
   current occupation vector 
    23 11 11  3
    23 11 11  3
      55         -1833.657907438671373              0.1053402343D-06
   current occupation vector 
    23 11 11  3
    23 11 11  3
      56         -1833.657907438671373              0.2239202628D-06
   current occupation vector 
    23 11 11  3
    23 11 11  3
      57         -1833.657907438662278              0.1109712766D-06
   current occupation vector 
    23 11 11  3
    23 11 11  3
      58         -1833.657907438659095              0.4175588497D-07
   current occupation vector 
    23 11 11  3
    23 11 11  3
      59         -1833.657907438659549              0.1905221847D-07
   current occupation vector 
    23 11 11  3
    23 11 11  3
      60         -1833.657907438663187              0.6651030038D-07
   current occupation vector 
    23 11 11  3
    23 11 11  3
      61         -1833.657907438671373              0.3099342294D-07
   current occupation vector 
    23 11 11  3
    23 11 11  3
      62         -1833.657907438669099              0.1635809088D-07
   current occupation vector 
    23 11 11  3
    23 11 11  3
      63         -1833.657907438659095              0.6013174847D-08
   current occupation vector 
    23 11 11  3
    23 11 11  3
      64         -1833.657907438661823              0.6530076035D-08
   current occupation vector 
    23 11 11  3
    23 11 11  3
      65         -1833.657907438657730              0.1139477757D-07
   current occupation vector 
    23 11 11  3
    23 11 11  3
      66         -1833.657907438652728              0.1043727771D-08
   current occupation vector 
    23 11 11  3
    23 11 11  3
      67         -1833.657907438653183              0.1924596482D-08
   current occupation vector 
    23 11 11  3
    23 11 11  3
      68         -1833.657907438665006              0.8082743364D-09
   current occupation vector 
    23 11 11  3
    23 11 11  3
      69         -1833.657907438650909              0.1003940042D-08
   current occupation vector 
    23 11 11  3
    23 11 11  3
      70         -1833.657907438664097              0.5108189427D-09
   current occupation vector 
    23 11 11  3
    23 11 11  3
      71         -1833.657907438663642              0.2141584687D-09
   current occupation vector 
    23 11 11  3
    23 11 11  3
      72         -1833.657907438659549              0.1641389247D-09
   current occupation vector 
    23 11 11  3
    23 11 11  3
      73         -1833.657907438656821              0.1799200788D-09
   current occupation vector 
    23 11 11  3
    23 11 11  3
      74         -1833.657907438668644              0.2386650877D-09
   current occupation vector 
    23 11 11  3
    23 11 11  3
      75         -1833.657907438660914              0.2833626667D-09
   current occupation vector 
    23 11 11  3
    23 11 11  3
      76         -1833.657907438659095              0.2141513633D-09
   current occupation vector 
    23 11 11  3
    23 11 11  3
      77         -1833.657907438649090              0.3139444260D-09
   current occupation vector 
    23 11 11  3
    23 11 11  3
      78         -1833.657907438657730              0.1677689099D-09
   current occupation vector 
    23 11 11  3
    23 11 11  3

  SCF has converged.

 Density matrix saved to file den.dat
 total electron number:   96.000000000000242     
     E(SCF)=     -1833.657907438648635              0.5883560306D-10

  Eigenvector printing suppressed.

 @PUTMOS-I, Writing converged MOs to NEWMOS. 
 @PUTMOS-I, Symmetry   1 Full Blocks 18 Partial Blocksize   1
 @PUTMOS-I, Symmetry   2 Full Blocks 11 Partial Blocksize   0
 @PUTMOS-I, Symmetry   3 Full Blocks 11 Partial Blocksize   0
 @PUTMOS-I, Symmetry   4 Full Blocks  5 Partial Blocksize   2
 @PUTFOCK-I, Writing converged Fock matrix to NEWFOCK. 
 @PUTFOCK-I, Symmetry   1 Full Blocks 18 Partial Blocksize   1
 @PUTFOCK-I, Symmetry   2 Full Blocks 11 Partial Blocksize   0
 @PUTFOCK-I, Symmetry   3 Full Blocks 11 Partial Blocksize   0
 @PUTFOCK-I, Symmetry   4 Full Blocks  5 Partial Blocksize   2



  ORBITAL EIGENVALUES (ALPHA)  (1H = 27.2113834 eV)

       MO #        E(hartree)               E(eV)           FULLSYM    COMPSYM
       ----   --------------------   --------------------   -------   ---------
    1     1        -263.5301800124       -7171.0207657893    A1'         A1 (1)
    2     2         -32.4606567009        -883.2993749039    A1'         A1 (1)
    3   118         -27.6437381191        -752.2243565679    A              (3)
    4    74         -27.6336509468        -751.9498706552     E           1 (2)
    5     3         -27.6336509468        -751.9498706551     E             (1)
    6   119         -20.7088702953        -563.5170093870     E             (3)
    7     4         -20.7088688144        -563.5169690879     E             (1)
    8    75         -20.6838014520        -562.8348514808                A1 (2)
    9     5         -20.6838014520        -562.8348514807                   (1)
   10     6         -20.6838002736        -562.8348194149                   (1)
   11   120         -11.4202610133        -310.7611009610     E             (3)
   12     7         -11.4202585919        -310.7610350702     E             (1)
   13    76         -11.4042066002        -310.3242381714                   (2)
   14     8         -11.4042066002        -310.3242381713                   (1)
   15     9         -11.4042061668        -310.3242263785                   (1)
   16    10          -4.2091161291        -114.5358727630    A              (1)
   17   121          -2.7479084909         -74.7743914936    A              (3)
   18    77          -2.7352973868         -74.4312259040     E             (2)
   19    11          -2.7352973868         -74.4312259040     E             (1)
   20    12          -1.5299152117         -41.6311093947    A              (1)
   21   122          -1.5298187436         -41.6284843645    A              (3)
   22    13          -1.5059843335         -40.9799170922    A              (1)
   23    78          -1.5058062678         -40.9750716792     E             (2)
   24    14          -1.5058062678         -40.9750716791     E             (1)
   25    15          -0.8672320192         -23.5985829719    A              (1)
   26   123          -0.8289742162         -22.5575352258    A              (3)
   27    79          -0.8084223087         -21.9982893907     E             (2)
   28    16          -0.8084223087         -21.9982893906     E             (1)
   29    17          -0.8082042996         -21.9923570624    A              (1)
   30    18          -0.7302256055         -19.8704489207    A              (1)
   31   162          -0.6681173387         -18.1803970584     E'          1 (4)
   32   124          -0.6681173387         -18.1803970583     E'         A1 (3)
   33   125          -0.6674745090         -18.1629047744    A              (3)
   34    80          -0.6652734087         -18.1030097889     E             (2)
   35    19          -0.6652734087         -18.1030097889     E             (1)
   36    20          -0.6426882572         -17.4884365727     E             (1)
   37    81          -0.6426882572         -17.4884365726     E             (2)
   38    82          -0.6318315187         -17.1930096997    A '          1 (2)
   39   163          -0.6253057619         -17.0154348281     E'          1 (4)
   40   126          -0.6253057619         -17.0154348280     E'         A1 (3)
   41    83          -0.6224100877         -16.9366395271     E             (2)
   42    21          -0.6224100876         -16.9366395271     E             (1)
   43    22          -0.6045997416         -16.4519953722    A              (1)
   44   127          -0.6011600765         -16.3583973276    A              (3)
   45   128          -0.4803857954         -13.0719620599     E'         A1 (3)
   46   164          -0.4803857954         -13.0719620597     E'          1 (4)
   47    23          -0.3427625375          -9.3270428221     E             (1)
   48    84          -0.3427625374          -9.3270428217     E             (2)
  +++++++++++++++++++++++++++++++++++++++++++++++++++++++++++++++++++++++++++++
   49    24           0.0817657775           2.2249599199    A '          1 (1)
   50   129           0.0918460743           2.4992587407     E'         A1 (3)
   51   165           0.0918460743           2.4992587408     E'          1 (4)
   52   130           0.1044620316           2.8425563924    A              (3)
   53    25           0.1103361001           3.0023979222     E             (1)
   54    85           0.1103361001           3.0023979224     E             (2)
   55    26           0.1333183823           3.6277776157     E             (1)
   56    86           0.1333183823           3.6277776157     E             (2)
   57    87           0.1375320667           3.7424377977    A '          1 (2)
   58   131           0.1480428286           4.0284501677    A              (3)
   59    27           0.1525319071           4.1506042046     E             (1)
   60    88           0.1525319071           4.1506042048     E           1 (2)
   61   166           0.2121089878           5.7717789885     E'          1 (4)
   62   132           0.2121089878           5.7717789886     E'         A1 (3)
   63    28           0.2713174589           7.3829233969    A              (1)
   64    29           0.3471598503           9.4466997887    A              (1)
   65    30           0.3736905813          10.1686376817     E             (1)
   66    89           0.3736905814          10.1686376827     E             (2)
   67   167           0.4338744296          11.8063234503     E'          1 (4)
   68   133           0.4338744296          11.8063234503     E'         A1 (3)
   69   134           0.4755443646          12.9402200282    A              (3)
   70    31           0.4803854845          13.0719535979    A              (1)
   71    32           0.5338073484          14.5256364201    A              (1)
   72    33           0.5403540010          14.7037798925     E             (1)
   73    90           0.5403540010          14.7037798932     E             (2)
   74   135           0.6513797569          17.7249443039    A              (3)
   75    34           0.6738262735          18.3357450740     E             (1)
   76    91           0.6738262736          18.3357450754     E             (2)
   77    35           0.6947126586          18.9040925069    A              (1)
   78   168           0.7002009626          19.0534368508     E'          1 (4)
   79   136           0.7002009626          19.0534368509     E'         A1 (3)
   80    36           0.7352917197          20.0083048948     E             (1)
   81    92           0.7352917197          20.0083048948     E           1 (2)
   82    93           0.7706475498          20.9703859443    A '          1 (2)
   83   137           0.7771218123          21.1465595830    A              (3)
   84    37           0.8372972581          22.7840167102    A              (1)
   85    38           0.8610942680          23.4315662693     E             (1)
   86    94           0.8610942680          23.4315662697     E             (2)
   87   138           0.8712070726          23.7067496742     E'         A1 (3)
   88   169           0.8712070726          23.7067496742     E'          1 (4)
   89   139           0.8998116589          24.4851200386    A              (3)
   90    39           0.9252573925          25.1775336498     E             (1)
   91    95           0.9252573925          25.1775336506     E             (2)
   92    40           0.9405748989          25.5943441903    A              (1)
   93    41           0.9873837775          26.8680785318    A              (1)
   94    42           1.0128500203          27.5610502293     E             (1)
   95    96           1.0128500203          27.5610502295     E             (2)
   96   140           1.0155453950          27.6343951026    A              (3)
   97    43           1.0639912140          28.9526728597    A              (1)
   98    44           1.2168433882          33.1119919732     E             (1)
   99    97           1.2168433882          33.1119919734     E             (2)
  100   170           1.2270342416          33.3892991943     E'          1 (4)
  101   141           1.2270342416          33.3892991943     E'         A1 (3)
  102   142           1.2452842537          33.8859072686    A              (3)
  103   171           1.2506692354          34.0324400714     E'          1 (4)
  104   143           1.2506692354          34.0324400715     E'         A1 (3)
  105    45           1.2629903953          34.3677158784     E             (1)
  106    98           1.2629903954          34.3677158785     E             (2)
  107    99           1.2879356612          35.0465110716    A '          1 (2)
  108   172           1.3154389404          35.7949133459    A1'            (4)
  109    46           1.3243596469          36.0376581116     E             (1)
  110   100           1.3243596469          36.0376581116     E             (2)
  111    47           1.3310907187          36.2208198868    A              (1)
  112   173           1.3465038149          36.6402315580     E'          1 (4)
  113   144           1.3465038149          36.6402315580     E'         A1 (3)
  114   145           1.3873488102          37.7516803837     E'         A1 (3)
  115   174           1.3873488102          37.7516803838     E'          1 (4)
  116    48           1.4040984998          38.2074626096     E             (1)
  117   101           1.4040984998          38.2074626098     E             (2)
  118   102           1.4458457676          39.3434635206    A '          1 (2)
  119   146           1.4484920862          39.4154735085    A              (3)
  120    49           1.4848755390          40.4055175923     E             (1)
  121   103           1.4848755390          40.4055175923     E           1 (2)
  122   147           1.5012821545          40.8519642988     E'         A1 (3)
  123   175           1.5012821545          40.8519642989     E'          1 (4)
  124    50           1.5791890575          42.9719189058    A              (1)
  125    51           1.5868814722          43.1812401513     E             (1)
  126   104           1.5868814724          43.1812401572     E           1 (2)
  127   148           1.6099119753          43.8079320012    A              (3)
  128   176           1.7012078078          46.2922179007     E'          1 (4)
  129   149           1.7012078078          46.2922179007     E'         A1 (3)
  130    52           1.7198387362          46.7991912377     E             (1)
  131   105           1.7198387363          46.7991912398     E             (2)
  132    53           1.7559317930          47.7813332447    A              (1)
  133   150           1.8177921605          49.4646394208    A              (3)
  134    54           1.8388191671          50.0368133589     E             (1)
  135   106           1.8388191671          50.0368133596     E             (2)
  136    55           1.9262102330          52.4148451601    A              (1)
  137    56           2.1127961447          57.4921059388    A              (1)
  138   151           2.1300868261          57.9626093001    A              (3)
  139   107           2.1472831468          58.4305449748     E             (2)
  140    57           2.1472831468          58.4305449748     E             (1)
  141    58           2.1693226101          59.0302692626    A              (1)
  142   152           2.2974783896          62.5175653133     E'         A1 (3)
  143   177           2.2974783896          62.5175653133     E'          1 (4)
  144    59           2.4748143538          67.3431222255    A              (1)
  145    60           2.5078137118          68.2410804066     E             (1)
  146   108           2.5078137118          68.2410804085     E             (2)
  147   153           2.8389638615          77.2521340943    A              (3)
  148    61           2.8887817060          78.6077465603    A              (1)
  149   178           2.9194271734          79.4416521245     E'          1 (4)
  150   154           2.9194271734          79.4416521245     E'         A1 (3)
  151    62           2.9214681548          79.4971900505     E             (1)
  152   109           2.9214681548          79.4971900505     E           1 (2)
  153   179           2.9350888336          79.8678275655    A1'            (4)
  154   110           2.9390938010          79.9768082677     E             (2)
  155    63           2.9390938010          79.9768082677     E             (1)
  156   155           2.9404074764          80.0125551937     E'         A1 (3)
  157   180           2.9404074764          80.0125551938     E'         A1 (4)
  158    64           2.9555047809          80.4233737337    A              (1)
  159    65           3.0715841896          83.5820550277     E             (1)
  160   111           3.0715841896          83.5820550277     E             (2)
  161   112           3.2290172503          87.8660264039    A '          1 (2)
  162   181           3.2972668241          89.7231917234     E'          1 (4)
  163   156           3.2972668241          89.7231917234     E'         A1 (3)
  164    66           3.4695229453          94.4105190801     E             (1)
  165   113           3.4695229453          94.4105190801     E             (2)
  166   157           3.4858219007          94.8540362037    A              (3)
  167   158           3.4897557889          94.9610827440     E'         A1 (3)
  168   182           3.4897557889          94.9610827440     E'          1 (4)
  169    67           3.5677319020          97.0829206533     E             (1)
  170   114           3.5677319020          97.0829206533     E             (2)
  171    68           3.5737233917          97.2459573777    A              (1)
  172   183           3.7788252149         102.8270617255     E'          1 (4)
  173   159           3.7788252149         102.8270617255     E'         A1 (3)
  174    69           3.8368973786         104.4072856344    A              (1)
  175   160           3.8426877346         104.5648492316    A              (3)
  176   115           3.8685793167         105.2693950000     E             (2)
  177    70           3.8685793167         105.2693950000     E             (1)
  178   116           3.9563664071         107.6582031735    A '          1 (2)
  179    71           3.9922316543         108.6341461676    A              (1)
  180    72           4.2012437807         114.3216552736     E             (1)
  181   117           4.2012437807         114.3216552736     E             (2)
  182   161           4.4667693762         121.5469740544    A              (3)
  183    73           4.5189138101         122.9658962370    A              (1)


  VSCF finished.

 @CHECKOUT-I, Total execution time (CPU/WALL):      245.21/      15.35 seconds.
--executable xvscf finished with status     0 in       15.37 seconds (walltime).
 --invoking executable--
/opt/cfour/2.1/bin/xvtran
 @GETMEM-I,  Allocated   30517 MB of main memory.
  Full RHF integral transformation
  The following  15 MOs will be dropped:
    1  2  3  4  5  6  7  8  9 24 25 26 35 36 37
  There are 168 active molecular orbitals.
  Transformation of IIII integrals :
  1 pass through the AO integral file was required.
     4283576 AO integrals were read.
     2938485 MO integrals were written to HF2.
  Transformation of IIJJ integrals :
  1 pass through the AO integral file was required.
     6960296 AO integrals were read.
     5284874 MO integrals were written to HF2.
  Transformation of IJIJ integrals :
  1 pass through the AO integral file was required.
    13298506 AO integrals were read.
    10107713 MO integrals were written to HF2.
  Transformation of IJKL integrals :
  1 pass through the AO integral file was required.
     8577160 AO integrals were read.
     7100248 MO integrals were written to HF2.
  Summary of active molecular orbitals: 
------------------------------------------------------------------------

  Index      Eigenvalue    Symmetry    Index      Eigenvalue    Symmetry
------------------------------------------------------------------------
     1        -4.2091161        1        85         0.1333184        2
     2        -2.7352974        1        86         0.1375321        2
     3        -1.5299152        1        87         0.1525319        2
     4        -1.5059843        1        88         0.3736906        2
     5        -1.5058063        1        89         0.5403540        2
     6        -0.8672320        1        90         0.6738263        2
     7        -0.8084223        1        91         0.7352917        2
     8        -0.8082043        1        92         0.7706475        2
     9        -0.7302256        1        93         0.8610943        2
    10        -0.6652734        1        94         0.9252574        2
    11        -0.6426883        1        95         1.0128500        2
    12        -0.6224101        1        96         1.2168434        2
    13        -0.6045997        1        97         1.2629904        2
    14        -0.3427625        1        98         1.2879357        2
    15        -2.7352974        2        99         1.3243596        2
    16        -1.5058063        2       100         1.4040985        2
    17        -0.8084223        2       101         1.4458458        2
    18        -0.6652734        2       102         1.4848755        2
    19        -0.6426883        2       103         1.5868815        2
    20        -0.6318315        2       104         1.7198387        2
    21        -0.6224101        2       105         1.8388192        2
    22        -0.3427625        2       106         2.1472831        2
    23        -2.7479085        3       107         2.5078137        2
    24        -1.5298187        3       108         2.9214682        2
    25        -0.8289742        3       109         2.9390938        2
    26        -0.6681173        3       110         3.0715842        2
    27        -0.6674745        3       111         3.2290173        2
    28        -0.6253058        3       112         3.4695229        2
    29        -0.6011601        3       113         3.5677319        2
    30        -0.4803858        3       114         3.8685793        2
    31        -0.6681173        4       115         3.9563664        2
    32        -0.6253058        4       116         4.2012438        2
    33        -0.4803858        4       117         0.0918461        3
    34         0.0817658        1       118         0.1044620        3
    35         0.1103361        1       119         0.1480428        3
    36         0.1333184        1       120         0.2121090        3
    37         0.1525319        1       121         0.4338744        3
    38         0.2713175        1       122         0.4755444        3
    39         0.3471599        1       123         0.6513798        3
    40         0.3736906        1       124         0.7002010        3
    41         0.4803855        1       125         0.7771218        3
    42         0.5338073        1       126         0.8712071        3
    43         0.5403540        1       127         0.8998117        3
    44         0.6738263        1       128         1.0155454        3
    45         0.6947127        1       129         1.2270342        3
    46         0.7352917        1       130         1.2452843        3
    47         0.8372973        1       131         1.2506692        3
    48         0.8610943        1       132         1.3465038        3
    49         0.9252574        1       133         1.3873488        3
    50         0.9405749        1       134         1.4484921        3
    51         0.9873838        1       135         1.5012822        3
    52         1.0128500        1       136         1.6099120        3
    53         1.0639912        1       137         1.7012078        3
    54         1.2168434        1       138         1.8177922        3
    55         1.2629904        1       139         2.1300868        3
    56         1.3243596        1       140         2.2974784        3
    57         1.3310907        1       141         2.8389639        3
    58         1.4040985        1       142         2.9194272        3
    59         1.4848755        1       143         2.9404075        3
    60         1.5791891        1       144         3.2972668        3
    61         1.5868815        1       145         3.4858219        3
    62         1.7198387        1       146         3.4897558        3
    63         1.7559318        1       147         3.7788252        3
    64         1.8388192        1       148         3.8426877        3
    65         1.9262102        1       149         4.4667694        3
    66         2.1127961        1       150         0.0918461        4
    67         2.1472831        1       151         0.2121090        4
    68         2.1693226        1       152         0.4338744        4
    69         2.4748144        1       153         0.7002010        4
    70         2.5078137        1       154         0.8712071        4
    71         2.8887817        1       155         1.2270342        4
    72         2.9214682        1       156         1.2506692        4
    73         2.9390938        1       157         1.3154389        4
    74         2.9555048        1       158         1.3465038        4
    75         3.0715842        1       159         1.3873488        4
    76         3.4695229        1       160         1.5012822        4
    77         3.5677319        1       161         1.7012078        4
    78         3.5737234        1       162         2.2974784        4
    79         3.8368974        1       163         2.9194272        4
    80         3.8685793        1       164         2.9350888        4
    81         3.9922317        1       165         2.9404075        4
    82         4.2012438        1       166         3.2972668        4
    83         4.5189138        1       167         3.4897558        4
    84         0.1103361        2       168         3.7788252        4
------------------------------------------------------------------------
[...]
 71  15  0.2083103532D+00  0.5668412888D+01  0.9984949060D+00  0.8449771621D-02
 72  16  0.2082859035D+00  0.5667747577D+01  0.9999009756D+00  0.6682226019D-02
 73  17  0.2082571074D+00  0.5666963996D+01  0.9999240440D+00  0.3632101296D-02
  L-O-C-K-I-N-G O-N R-O-O-T 
 74  18  0.2082731730D+00  0.5667401163D+01  0.9999417778D+00  0.1979159222D-02
 75  19  0.2082661890D+00  0.5667211118D+01  0.9999570235D+00  0.1315572625D-02
 76  20  0.2082546317D+00  0.5666896628D+01  0.9999778091D+00  0.1141305987D-02
 77  21  0.2082703738D+00  0.5667324993D+01  0.9999959448D+00  0.1165184931D-02
 78  22  0.2082590270D+00  0.5667016231D+01  0.9999825804D+00  0.1446180869D-02
 The phase angle is:  -0.23456864187689846     
 Cr.Cr.  0.60497542607711841     
 Ci.Ci.  0.39502457392288148     
 79  23  0.2082472685D+00  0.5666696266D+01  0.9999500425D+00  0.1723802361D-02
 80  24  0.2082704025D+00  0.5667325773D+01  0.9996933207D+00  0.2505628602D-02
 81  25  0.2082400171D+00  0.5666498945D+01  0.9999029397D+00  0.1663949171D-02
 82  26  0.2082458173D+00  0.5666656775D+01  0.9998377755D+00  0.1624140364D-02
 83  27  0.2082240640D+00  0.5666064839D+01  0.9999502989D+00  0.1558445459D-02
 84  28  0.2082666974D+00  0.5667224952D+01  0.9998004462D+00  0.2623040764D-02
 85  29  0.2079752620D+00  0.5659294591D+01  0.9718846615D+00  0.1426848606D-01
 86  30  0.2082532311D+00  0.5666858516D+01  0.9159270997D+00  0.6651283704D-02
 87  31  0.2082698063D+00  0.5667309549D+01  0.9953028270D+00  0.1958188786D-02
 88  32  0.2082463030D+00  0.5666669993D+01  0.9999637084D+00  0.1386308163D-02
 89  33  0.2082499241D+00  0.5666768528D+01  0.9998939231D+00  0.9761593612D-03
 90  34  0.2082646091D+00  0.5667168127D+01  0.9999855183D+00  0.5717909220D-03
 91  35  0.2082493337D+00  0.5666752463D+01  0.9999901525D+00  0.3385123694D-03
 92  36  0.2082566331D+00  0.5666951090D+01  0.9999985174D+00  0.1632274337D-03
 93  37  0.2082536475D+00  0.5666869847D+01  0.9999997373D+00  0.7904064763D-04
 94  38  0.2082542472D+00  0.5666886166D+01  0.9999999595D+00  0.4521573791D-04
 95  39  0.2082545596D+00  0.5666894666D+01  0.9999999948D+00  0.2925414833D-04
 96  40  0.2082540189D+00  0.5666879952D+01  0.9999999917D+00  0.2099374541D-04
 97  13  0.2082544041D+00  0.5666890435D+01  0.9999999966D+00  0.1749039600D-04
 98  14  0.2082542412D+00  0.5666886001D+01  0.9999999963D+00  0.1604718699D-04
 99  15  0.2082542012D+00  0.5666884914D+01  0.9999999977D+00  0.1287542721D-04
100  16  0.2082543663D+00  0.5666889406D+01  0.9999999985D+00  0.8961235037D-05
  Converged eigenvalue:   0.20825436628982028       a.u.
   Total EOMEE-CCSD electronic energy    -1835.627098241925069 a.u.
  Converged eigenvector 
  SCF eigenvalue ordering used in list below. 
--------------------------------------------------------------------------------
    I    j    A    b
--------------------------------------------------------------------------------
   47    0   49    0  -0.5057613453 AA  
   48    0   57    0   0.2846304296 AA  
   47    0   59    0  -0.2059018779 AA  
   48    0   60    0   0.2058931438 AA  
   48    0   56    0   0.0942343727 AA  
   47    0   55    0  -0.0942250857 AA  
   47    0   63    0  -0.0822391364 AA  
   47    0   71    0   0.0439001006 AA  
   47   47   59   49  -0.0353857539 ABAB
   47   47   49   59  -0.0353857539 ABAB
   48   47   60   49  -0.0340028491 ABAB
   47   48   49   60  -0.0340028491 ABAB
   45   47   50   49  -0.0325186641 ABAB
   47   45   49   50  -0.0325186641 ABAB
   47   47   53   49  -0.0322090756 ABAB
--------------------------------------------------------------------------------
  Converged eigenvector, normalized to one 
  SCF eigenvalue ordering used in list below. 
--------------------------------------------------------------------------------
    I    j    A    b
--------------------------------------------------------------------------------
   47    0   49    0  -0.5057613453 AA  
   48    0   57    0   0.2846304296 AA  
   47    0   59    0  -0.2059018779 AA  
   48    0   60    0   0.2058931438 AA  
   48    0   56    0   0.0942343727 AA  
   47    0   55    0  -0.0942250857 AA  
   47    0   63    0  -0.0822391364 AA  
   47    0   71    0   0.0439001006 AA  
   47   47   59   49  -0.0353857539 ABAB
   47   47   49   59  -0.0353857539 ABAB
   48   47   60   49  -0.0340028491 ABAB
   47   48   49   60  -0.0340028491 ABAB
   45   47   50   49  -0.0325186641 ABAB
   47   45   49   50  -0.0325186641 ABAB
   47   47   53   49  -0.0322090756 ABAB
--------------------------------------------------------------------------------

  Eigenvector is saved on CCRE_1_4  

  Adding new vector to expansion space.
  Guess for next eigenvalue   0.25051063749862978     
101  17  0.2012872971D+00  0.5477305814D+01  0.8348962204D-02  0.4583772546D-02
102  18  0.2013433043D+00  0.5478829847D+01  0.9999212783D+00  0.1736430144D-02
  L-O-C-K-I-N-G O-N R-O-O-T 
103  19  0.2013348902D+00  0.5478600888D+01  0.9999892599D+00  0.7681710315D-03
104  20  0.2013534637D+00  0.5479106298D+01  0.9999761151D+00  0.5434443986D-03
105  21  0.2013368135D+00  0.5478653226D+01  0.9999537381D+00  0.2469116754D-03
106  22  0.2013464475D+00  0.5478915380D+01  0.9999865246D+00  0.2204860216D-03
107  23  0.2013423812D+00  0.5478804730D+01  0.9999977587D+00  0.1150930149D-03
108  24  0.2013423232D+00  0.5478803151D+01  0.9999984214D+00  0.8712057304D-04
109  25  0.2013453666D+00  0.5478885966D+01  0.9999975126D+00  0.6258746538D-04
110  26  0.2013434984D+00  0.5478835131D+01  0.9999990789D+00  0.3185010821D-04
111  27  0.2013440017D+00  0.5478848826D+01  0.9999999846D+00  0.1728072018D-04
 The phase angle is:   0.59514853292578906     
 Cr.Cr.  0.90503518826104679     
 Ci.Ci.   9.4964811738953436E-002
112  28  0.2013439575D+00  0.5478847623D+01  0.9999999607D+00  0.9153852865D-05
  Converged eigenvalue:   0.20134395749325645       a.u.
   Total EOMEE-CCSD electronic energy    -1835.634008650721626 a.u.
  Converged eigenvector 
  SCF eigenvalue ordering used in list below. 
--------------------------------------------------------------------------------
    I    j    A    b
--------------------------------------------------------------------------------
   48    0   56    0  -0.4253192639 AA  
   47    0   55    0  -0.4253124047 AA  
   47    0   53    0   0.1595628862 AA  
   48    0   54    0   0.1595628769 AA  
   47    0   59    0  -0.0911959274 AA  
   48    0   60    0  -0.0911931789 AA  
   45    0   50    0  -0.0361733630 AA  
   46    0   51    0  -0.0361671110 AA  
   41    0   56    0  -0.0275818011 AA  
   42    0   55    0  -0.0275804179 AA  
   48   48   56   54  -0.0274485752 ABAB
   48   48   54   56  -0.0274485752 ABAB
   47   47   55   53  -0.0274481990 ABAB
   47   47   53   55  -0.0274481990 ABAB
   48   46   56   51  -0.0273585057 ABAB
--------------------------------------------------------------------------------
  Converged eigenvector, normalized to one 
  SCF eigenvalue ordering used in list below. 
--------------------------------------------------------------------------------
    I    j    A    b
--------------------------------------------------------------------------------
   48    0   56    0  -0.4253192639 AA  
   47    0   55    0  -0.4253124047 AA  
   47    0   53    0   0.1595628862 AA  
   48    0   54    0   0.1595628769 AA  
   47    0   59    0  -0.0911959274 AA  
   48    0   60    0  -0.0911931789 AA  
   45    0   50    0  -0.0361733630 AA  
   46    0   51    0  -0.0361671110 AA  
   41    0   56    0  -0.0275818011 AA  
   42    0   55    0  -0.0275804179 AA  
   48   48   56   54  -0.0274485752 ABAB
   48   48   54   56  -0.0274485752 ABAB
   47   47   55   53  -0.0274481990 ABAB
   47   47   53   55  -0.0274481990 ABAB
   48   46   56   51  -0.0273585057 ABAB
--------------------------------------------------------------------------------

  Eigenvector is saved on CCRE_1_5  

  Adding new vector to expansion space.
  Guess for next eigenvalue   0.26573951113995337     
 The phase angle is:   0.37727800919709786     
 Cr.Cr.  0.89984387484382022     
 Ci.Ci.  0.10015612515617973     
113  29  0.2106329376D+00  0.5731613623D+01  0.1411858105D+00  0.1559423095D-01
 The phase angle is:  -0.33575118832925005     
 Cr.Cr.   9.8230428301370201E-002
 Ci.Ci.  0.90176957169862970     
114  30  0.2095839990D+00  0.5703070552D+01  0.9991685902D+00  0.9146724843D-02
 The phase angle is:   -2.8289562269851486E-002
 Cr.Cr.  0.11828803135573954     
 Ci.Ci.  0.88171196864426049     
115  31  0.2098454586D+00  0.5710185229D+01  0.9992054862D+00  0.4383049238D-02
 The phase angle is:  -0.55860598935415162     
 Cr.Cr.  0.14786239114977556     
 Ci.Ci.  0.85213760885022438     
116  32  0.2097280096D+00  0.5706989278D+01  0.9997057569D+00  0.2023697516D-02
 The phase angle is:   0.22759351521825424     
 Cr.Cr.  0.85095886885709682     
 Ci.Ci.  0.14904113114290324     
  L-O-C-K-I-N-G O-N R-O-O-T 
117  33  0.2097418990D+00  0.5707367228D+01  0.9998577786D+00  0.8659501448D-03
 The phase angle is:  -0.68190871462963765     
 Cr.Cr.  0.85180323822801107     
 Ci.Ci.  0.14819676177198904     
118  34  0.2097466079D+00  0.5707495365D+01  0.9999623042D+00  0.4511850862D-03
 The phase angle is:   0.35434524563170139     
 Cr.Cr.  0.17467342500977093     
 Ci.Ci.  0.82532657499022910     
119  35  0.2097443173D+00  0.5707433034D+01  0.9999930491D+00  0.2378905719D-03
 The phase angle is:   0.59950753833998460     
 Cr.Cr.  0.15507672928727320     
 Ci.Ci.  0.84492327071272655     
120  36  0.2097437150D+00  0.5707416644D+01  0.9999967456D+00  0.1302123570D-03
 The phase angle is:  -0.70562977867114185     
 Cr.Cr.  0.22032022936427997     
 Ci.Ci.  0.77967977063571992     
121  37  0.2097442933D+00  0.5707432382D+01  0.9999988811D+00  0.7324346489D-04
 The phase angle is:   0.52406959874444559     
 Cr.Cr.  0.16326641199750591     
 Ci.Ci.  0.83673358800249431     
122  38  0.2097434541D+00  0.5707409546D+01  0.9999998215D+00  0.4095817788D-04
 The phase angle is:  -0.46800632239588813     
 Cr.Cr.  0.82040637538811600     
 Ci.Ci.  0.17959362461188408     
123  39  0.2097440134D+00  0.5707424764D+01  0.9999999753D+00  0.2377700301D-04
 The phase angle is:  -0.55514059960948348     
 Cr.Cr.  0.85135953688067656     
 Ci.Ci.  0.14864046311932344     
124  40  0.2097436997D+00  0.5707416228D+01  0.9999999784D+00  0.1352748943D-04
 The phase angle is:   0.38330221422085325     
 Cr.Cr.  0.16766253164185133     
 Ci.Ci.  0.83233746835814881     
125  13  0.2097438027D+00  0.5707419032D+01  0.9999999910D+00  0.7258102706D-05
  Converged eigenvalue:   0.20974380274442950       a.u.
   Total EOMEE-CCSD electronic energy    -1835.625608805470392 a.u.
  Converged eigenvector 
  SCF eigenvalue ordering used in list below. 
--------------------------------------------------------------------------------
    I    j    A    b
--------------------------------------------------------------------------------
   47    0   49    0   0.3694969393 AA  
   48    0   60    0   0.2655685958 AA  
   47    0   59    0  -0.2655679590 AA  
   48    0   56    0   0.1935713760 AA  
   47    0   55    0  -0.1935684840 AA  
   45    0   58    0   0.1692342906 AA  
   47    0   53    0  -0.1359856935 AA  
   48    0   54    0   0.1359782848 AA  
   45    0   52    0  -0.1080607285 AA  
   47    0   63    0   0.0726831056 AA  
   45    0   62    0   0.0498509143 AA  
   46    0   61    0  -0.0498507532 AA  
   48    0   66    0  -0.0370816510 AA  
   47    0   65    0   0.0370816316 AA  
   47    0   71    0  -0.0307926774 AA  
--------------------------------------------------------------------------------
  Converged eigenvector, normalized to one 
  SCF eigenvalue ordering used in list below. 
--------------------------------------------------------------------------------
    I    j    A    b
--------------------------------------------------------------------------------
   47    0   49    0   0.3694969393 AA  
   48    0   60    0   0.2655685958 AA  
   47    0   59    0  -0.2655679590 AA  
   48    0   56    0   0.1935713760 AA  
   47    0   55    0  -0.1935684840 AA  
   45    0   58    0   0.1692342906 AA  
   47    0   53    0  -0.1359856935 AA  
   48    0   54    0   0.1359782848 AA  
   45    0   52    0  -0.1080607285 AA  
   47    0   63    0   0.0726831056 AA  
   45    0   62    0   0.0498509143 AA  
   46    0   61    0  -0.0498507532 AA  
   48    0   66    0  -0.0370816510 AA  
   47    0   65    0   0.0370816316 AA  
   47    0   71    0  -0.0307926774 AA  
--------------------------------------------------------------------------------

  Eigenvector is saved on CCRE_1_6  

  Adding new vector to expansion space.
  Guess for next eigenvalue   0.30475656612245383     
126  14  0.2144232066D+00  0.5834752085D+01  0.1228118593D-01  0.3980628636D-02
127  15  0.2144842340D+00  0.5836412725D+01  0.9999940657D+00  0.1371977334D-02
128  16  0.2144389928D+00  0.5835181650D+01  0.9999980101D+00  0.7505729494D-03
  L-O-C-K-I-N-G O-N R-O-O-T 
129  17  0.2144276480D+00  0.5834872941D+01  0.9999993026D+00  0.6406558809D-03
130  18  0.2144474870D+00  0.5835412788D+01  0.9999997894D+00  0.3518359673D-03
131  19  0.2144388517D+00  0.5835177809D+01  0.9999998772D+00  0.1935206762D-03
132  20  0.2144406622D+00  0.5835227076D+01  0.9999999316D+00  0.1062614281D-03
133  21  0.2144416505D+00  0.5835253968D+01  0.9999999836D+00  0.5755975897D-04
134  22  0.2144412963D+00  0.5835244330D+01  0.9999999963D+00  0.2976357747D-04
135  23  0.2144411180D+00  0.5835239477D+01  0.9999999969D+00  0.1812822689D-04
136  24  0.2144413157D+00  0.5835244857D+01  0.9999999974D+00  0.8717082612D-05
  Converged eigenvalue:   0.21444131566280231       a.u.
   Total EOMEE-CCSD electronic energy    -1835.620911292552137 a.u.
  Converged eigenvector 
  SCF eigenvalue ordering used in list below. 
--------------------------------------------------------------------------------
    I    j    A    b
--------------------------------------------------------------------------------
   46    0   51    0  -0.3465546486 AA  
   45    0   50    0  -0.3465530656 AA  
   48    0   60    0   0.2645805417 AA  
   47    0   59    0   0.2645782577 AA  
   48    0   54    0   0.1678754387 AA  
   47    0   53    0   0.1678739360 AA  
   46   46   51   51  -0.0638759276 ABAB
   45   45   50   50  -0.0638755232 ABAB
   43    0   63    0  -0.0433819576 AA  
   46   45   51   50  -0.0406957453 ABAB
   45   46   50   51  -0.0406957453 ABAB
   31    0   51    0  -0.0385982443 AA  
   32    0   50    0  -0.0385979984 AA  
   45    0   62    0   0.0373304437 AA  
   46    0   61    0   0.0373297300 AA  
--------------------------------------------------------------------------------
  Converged eigenvector, normalized to one 
  SCF eigenvalue ordering used in list below. 
--------------------------------------------------------------------------------
    I    j    A    b
--------------------------------------------------------------------------------
   46    0   51    0  -0.3465546486 AA  
   45    0   50    0  -0.3465530656 AA  
   48    0   60    0   0.2645805417 AA  
   47    0   59    0   0.2645782577 AA  
   48    0   54    0   0.1678754387 AA  
   47    0   53    0   0.1678739360 AA  
   46   46   51   51  -0.0638759276 ABAB
   45   45   50   50  -0.0638755232 ABAB
   43    0   63    0  -0.0433819576 AA  
   46   45   51   50  -0.0406957453 ABAB
   45   46   50   51  -0.0406957453 ABAB
   31    0   51    0  -0.0385982443 AA  
   32    0   50    0  -0.0385979984 AA  
   45    0   62    0   0.0373304437 AA  
   46    0   61    0   0.0373297300 AA  
--------------------------------------------------------------------------------

  Eigenvector is saved on CCRE_1_7  

  Adding new vector to expansion space.
  Guess for next eigenvalue   0.36246915000938268     
137  25  0.2290730996D+00  0.6233395939D+01  0.3881318294D-01  0.1996759724D-01
138  26  0.2278446645D+00  0.6199968521D+01  0.9995644111D+00  0.1024767203D-01
139  27  0.2280682350D+00  0.6206052183D+01  0.9999138408D+00  0.4063198907D-02
140  28  0.2279383683D+00  0.6202518333D+01  0.9999746308D+00  0.2260411893D-02
  L-O-C-K-I-N-G O-N R-O-O-T 
141  29  0.2279502919D+00  0.6202842788D+01  0.9999861245D+00  0.1204926304D-02
142  30  0.2279592517D+00  0.6203086599D+01  0.9999944830D+00  0.6566796478D-03
143  31  0.2279510408D+00  0.6202863169D+01  0.9999986695D+00  0.3788549592D-03
144  32  0.2279573884D+00  0.6203035894D+01  0.9999995627D+00  0.2702910348D-03
145  33  0.2279559573D+00  0.6202996952D+01  0.9999997922D+00  0.1971211857D-03
 The phase angle is:   0.49453052471256265     
 Cr.Cr.  0.93960612356742990     
 Ci.Ci.   6.0393876432569993E-002
146  34  0.2279554593D+00  0.6202983402D+01  0.9999998785D+00  0.1240735918D-03
147  35  0.2279550776D+00  0.6202973013D+01  0.9999999514D+00  0.8690847839D-04
148  36  0.2279550396D+00  0.6202971981D+01  0.9999999812D+00  0.5531629586D-04
149  37  0.2279553574D+00  0.6202980629D+01  0.9999999924D+00  0.3398865911D-04
150  38  0.2279553936D+00  0.6202981613D+01  0.9999999969D+00  0.2124150783D-04
151  39  0.2279553315D+00  0.6202979923D+01  0.9999999991D+00  0.1232273212D-04
 The phase angle is:  -0.27795136582596042     
 Cr.Cr.  0.12581088498720316     
 Ci.Ci.  0.87418911501279684     
152  40  0.2279553665D+00  0.6202980876D+01  0.9999999997D+00  0.5945957291D-05
  Converged eigenvalue:   0.22795536650162107       a.u.
   Total EOMEE-CCSD electronic energy    -1835.607397241713215 a.u.
  Converged eigenvector 
  SCF eigenvalue ordering used in list below. 
--------------------------------------------------------------------------------
    I    j    A    b
--------------------------------------------------------------------------------
   45    0   50    0   0.4454064136 AA  
   46    0   51    0  -0.4454058351 AA  
   47    0   63    0  -0.0943920288 AA  
   48    0   57    0  -0.0900424786 AA  
   46   46   51   51  -0.0845880825 ABAB
   45   45   50   50   0.0842713529 ABAB
   47    0   53    0  -0.0657753053 AA  
   48    0   54    0   0.0657749821 AA  
   48    0   56    0  -0.0472723388 AA  
   47    0   55    0   0.0472702662 AA  
   47    0   64    0   0.0394141324 AA  
   42    0   63    0   0.0381758714 AA  
   32    0   50    0   0.0381323305 AA  
   31    0   51    0  -0.0381319526 AA  
   40    0   50    0   0.0319636142 AA  
--------------------------------------------------------------------------------
  Converged eigenvector, normalized to one 
  SCF eigenvalue ordering used in list below. 
--------------------------------------------------------------------------------
    I    j    A    b
--------------------------------------------------------------------------------
   45    0   50    0   0.4454064136 AA  
   46    0   51    0  -0.4454058351 AA  
   47    0   63    0  -0.0943920288 AA  
   48    0   57    0  -0.0900424786 AA  
   46   46   51   51  -0.0845880825 ABAB
   45   45   50   50   0.0842713529 ABAB
   47    0   53    0  -0.0657753053 AA  
   48    0   54    0   0.0657749821 AA  
   48    0   56    0  -0.0472723388 AA  
   47    0   55    0   0.0472702662 AA  
   47    0   64    0   0.0394141324 AA  
   42    0   63    0   0.0381758714 AA  
   32    0   50    0   0.0381323305 AA  
   31    0   51    0  -0.0381319526 AA  
   40    0   50    0   0.0319636142 AA  
--------------------------------------------------------------------------------

  Eigenvector is saved on CCRE_1_8  

  Solution of   8 roots required  152 iterations.
 @CHECKOUT-I, Total execution time (CPU/WALL):    22808.04/    1197.03 seconds.
--executable xvee finished with status     0 in     1197.10 seconds (walltime).
  The final electronic energy is     -1835.607397241713215 a.u. 
  This computation required                         1368.70 seconds (walltime).
Attempting to clean /scratch/jearias... save is False. TIME: Fri 13 Jun 2025 12:23:34 PM PDT
Total of 1370 seconds elapsed for this process.
