 --invoking executable--
/opt/cfour/2.1/bin/xjoda


   *************************************************************************
         <<<     CCCCCC     CCCCCC   |||     CCCCCC     CCCCCC   >>>
       <<<      CCC        CCC       |||    CCC        CCC         >>>
      <<<      CCC        CCC        |||   CCC        CCC            >>>
    <<<        CCC        CCC        |||   CCC        CCC              >>>
      <<<      CCC        CCC        |||   CCC        CCC            >>>
       <<<      CCC        CCC       |||    CCC        CCC         >>>
         <<<     CCCCCC     CCCCCC   |||     CCCCCC     CCCCCC   >>>
   *************************************************************************

     ****************************************************************
     * CFOUR Coupled-Cluster techniques for Computational Chemistry *
     ****************************************************************


   Department of Chemistry                Institut fuer Physikalische Chemie
   University of Florida                  Universitaet Mainz
   Gainesville, FL 32611, USA             D-55099 Mainz, Germany

   Department of Chemistry                Fakultaet fuer Chemie und Biowiss.
   Johns Hopkins University               Karlsruher Institut fuer Technologie
   Baltimore, MD 21218, USA               D-76131 Karlsruhe, Germany

   Department of Chemistry                Department of Physical Chemistry
   Southern Methodist University          Eotvos Lorand University
   Dallas, TX 75275, USA                  H-1053 Budapest, Hungary


                       Version 2.1

                     node027                                           
                     Thu 28 Aug 2025 11:27:21 PM PDT                   
                     integer*8 version is running

********************************************************************************
*                          Input from ZMAT file                                *
********************************************************************************
Optimization on FeCO5                                                           
Fe                                                                              
C 1 rFeCAx*                                                                     
C 1 rFeCEq* 2 a90                                                               
C 1 rFeCEq* 3 a120 2 dn90                                                       
C 1 rFeCEq* 3 a120 2 d90                                                        
C 1 rFeCAx* 3 a90 4 dn90                                                        
O 1 rFeOAx* 3 a90 4 d90                                                         
O 1 rFeOAx* 3 a90 4 dn90                                                        
O 1 rFeOEq* 2 a90 3 d0                                                          
O 1 rFeOEq* 2 a90 4 d0                                                          
O 1 rFeOEq* 2 a90 5 d0                                                          
                                                                                
rFeCAx =    1.829565855794663                                                   
rFeCEq =    1.830427937707052                                                   
rFeOAx =    2.983800083699976                                                   
rFeOEq =    2.987529988574558                                                   
a90    =   90.00000                                                             
a120   =  120.00000                                                             
dn90   =  -90.00000                                                             
d0     =    0.00000                                                             
d90    =   90.00000                                                             
                                                                                
*ACES2(CALC = CCSD(T)                                                           
      BASIS = SPECIAL                                                           
FROZEN_CORE = ON                                                                
 OCCUPATION = 23-11-11-3                                                        
LOCK_ORBOCC = ON                                                                
SCF_DAMPING = 500                                                               
   SCF_CONV = 8                                                                 
    CC_CONV = 6                                                                 
 LINEQ_CONV = 6                                                                 
   SCF_MAXCYC = 500                                                             
    CC_MAXCYC = 500                                                             
 LINEQ_MAXCYC = 500                                                             
       MEMORY = 32                                                              
     MEM_UNIT = GB)                                                             
                                                                                
Fe:cc-pVTZ                                                                      
C:cc-pVTZ                                                                       
C:cc-pVTZ                                                                       
C:cc-pVTZ                                                                       
C:cc-pVTZ                                                                       
C:cc-pVTZ                                                                       
O:cc-pVTZ                                                                       
O:cc-pVTZ                                                                       
O:cc-pVTZ                                                                       
O:cc-pVTZ                                                                       
O:cc-pVTZ                                                                       
                                                                                
********************************************************************************
    -------------------------------------------------------------------
                    CFOUR Control Parameters 
    -------------------------------------------------------------------
        External           Internal           Value            Units
          Name               Name
    -------------------------------------------------------------------
       ABCDTYPE             IABCDT         STANDARD    [  0]    ***   
       ANHARMONIC           IANHAR         OFF         [  0]    ***   
       ANH_ALGORIT          IANALG         STANDARD    [  0]    ***   
       ANH_DERIVAT          IANDER         SECOND      [  1]    ***   
       ANH_MODE             ANHMOD         VIBRATION   [  0]    ***   
       ANH_STEPSIZ          ICUBST             50000          x 10-6  
       ANH_SYMMETR          IANHSM         ABELIAN     [  0]    ***   
       AO_LADDERS           IAOLAD         SINGLEPASS  [  1]    ***   
       AV_SCF               IAVSCF         OFF         [  0]    ***   
       BASIS                IBASIS         SPECIAL     [  0]    ***   
       BOTHVECTORS          BOTHVC         OFF         [  0]    ***   
       BOX_POTENT           IPIAB          OFF         [  0]    ***   
       BREIT                IBREIT         OFF         [  0]    ***   
       BRUCK_CONV           IBRTOL          10D-  4             ***   
       BRUECKNER            IBRKNR         OFF         [  0]    ***   
       BUFFERSIZE           IBUFFS              4096            ***   
       CACHE_RECS           ICHREC             10               ***   
       CALCLEVEL            ICLLVL         CCSD(T)     [ 22]    ***   
       CCORBOPT             ICCORB         OFF         [  0]  x 0.01  
       CC_CONV              ICCCNV          10D-  6             ***   
       CC_EXPORDER          ICCEOR              5               ***   
       CC_EXTRAPOL          ICCEXT         DIIS        [  1]    ***   
       CC_GUESS             ICCGES         MP2         [  0]    ***   
       CC_MAXCYC            ICCCYC            500              cycles 
       CC_PROGRAM           ICCPRO         VCC         [  0]    ***   
       CHARGE               ICHRGE              0               ***   
       CHOLESKY             ICHOLE         OFF         [  0]    ***   
       CIS_CONV             ICISTL              5               ***   
       COMM_SIZE            IPSIZE            ***               ***   
       CONSTANT             ICONST         OLD         [  1]    ***   
       CONTINUUM            ICONTU         NONE        [  0]    ***   
       CONTRACTION          ICNTYP         GENERAL     [  1]    ***   
       COORDINATES          ICOORD         INTERNAL    [  0]    ***   
       CPHF_CONVER          ICPHFT          10D- 16             ***   
       CPHF_MAXCYC          ICPHFC             64              cycles 
       CUBIC                ICUBIC         OFF         [  0]    ***   
       CURVILINEAR          ICURVY         OFF         [  0]    ***   
       DBOC                 IDBOC          OFF         [  0]    ***   
       DCT                  IDCT           OFF         [  0]    ***   
       DERIV_LEV            IDRLVL         FIRST       [  1]    ***   
       DEVMEM_SIZE          IDVMEM         *********           MByte  
       DIAG_MRCC            IEOMST          10D-  0             ***   
       DIFF_TYPE            IDIFTY         RELAXED     [  0]    ***   
       DIRECT               IDIRCT         OFF         [  0]    ***   
       DROPMO               IDRPMO      NONE         
       ECP                  IECP           OFF         [  0]    ***   
       EIGENVECTOR          IVEC                1               ***   
       EL_ANHARM            IELANH         OFF         [  0]    ***   
       EOMFOLLOW            IEOMSR         ENERGY      [  0]    ***   
       EOMIP                IEOMIP         OFF         [  0]    ***   
       EOMLEVEL             HBARFM         SAME        [  0]    ***   
       EOM_MRCC             IMRCCE         NEW         [  1]    ***   
       EOM_NONIT            EOMNON         OFF         [  0]    ***   
       EOM_NSING            IEOMSI          10D-  0             ***   
       EOM_NSTATES          IMRCCD         DAVIDSON    [  0]    ***   
       EOM_NTRIP            IEOMTR          10D-  0             ***   
       EOM_ORDER            IEXORD         ENERGY      [  0]    ***   
       EOM_PROPSTA          IEOMST              0               ***   
       ESTATE_CONV          IEXTOL          10D-  5             ***   
       ESTATE_DIAG          IEXDIG         ITERATIVE   [  0]    ***   
       ESTATE_LOCK          IESLOC         ON          [  1]    ***   
       ESTATE_MAXC          IEXMXC             40               ***   
       ESTATE_PROP          IEXPRP         OFF         [  0]    ***   
       EVAL_HESS            IRECAL              0            # of cyc.
       EXCITATION           IEXCIT              0               ***   
       EXCITE               IEXCIT         NONE        [  0]    ***   
       EXTERN_POT           IEXPOT         OFF         [  0]    ***   
       FCGRADNEW            IFCGNW         ON          [  1]    ***   
       FC_FIELD             IFINFC              0             x 10-6  
       FD_CALTYPE           IFDCAL         GRADONLY    [  0]    ***   
       FD_PROJECT           IFDPRJ         OFF         [  1]    ***   
       FD_STEPSIZE          IDISFD              0            10-4 bohr
       FD_USEGROUP          IFDGRP         FULL        [  0]    ***   
       FILE_RECSIZ          IFLREC              4096           words  
       FINITE_PERT          IFIPER              0             x 10-6  
       FIXGEOM              IFIXGM         OFF         [  0]    ***   
       FOCK                 IFOCK          AO          [  1]    ***   
       FREQ_ALGORI          IVIALG         STANDARD    [  0]    ***   
       FROZEN_CORE          IFROCO         ON          [  1]    ***   
       GAMMA_ABCD           IGABCD         STORE       [  0]    ***   
       GAMMA_ABCI           IGABCI         STORE       [  0]    ***   
       GENBAS_1             IGNBS1              0               ***   
       GENBAS_2             IGNBS2              0               ***   
       GENBAS_3             IGNBS3              0               ***   
       GENBAS_4             IGNBS4              0               ***   
       GEO_CONV             ICONTL              5              H/bohr 
       GEO_MAXCYC           IOPTCY             50               ***   
       GEO_MAXSTEP          IMXSTP            300            millibohr
       GEO_METHOD           INR            NR          [  0]    ***   
       GIAO                 IGIAO          OFF         [  1]    ***   
       GIMIC                IGIMIC         OFF         [  0]    ***   
       GRID                 IGRID          OFF         [  0]    ***   
       GRID_ALGO            IGALGO         SERIAL      [  0]    ***   
       GUESS                IGUESS         MOREAD      [  0]    ***   
       HBAR                 IHBAR          OFF         [  0]    ***   
       HESS_TYPE            IHESTP         SCF         [  0]    ***   
       HF2_FILE             IHF2Fl         USE         [  1]    ***   
       HFSTABILITY          ISTABL         OFF         [  0]    ***   
       INCORE               INCORE         OFF         [  0]    ***   
       INPUT_MRCC           IMRCC          ON          [  1]    ***   
       INTEGRALS            INTTYP         VMOL        [  1]    ***   
       JODA_PRINT           IJPRNT              0               ***   
       KEYWORD_OUT          IDMPKW         NO          [  0]    ***   
       LINDEP_TOL           ILINDP              8               ***   
       LINEQ_CONV           IZTACN          10D-  6           cycles  
       LINEQ_EXPOR          ILMAXD              5               ***   
       LINEQ_MAXCY          ILMAXC            500               ***   
       LINEQ_TYPE           ILTYPE         DIIS        [  1]    ***   
       LOCK_ORBOCC          ILOCOC         ON          [  1]    ***   
       MEMORY_SIZE          IMEMSZ         *********           words  
       MEM_UNIT             IMEMU          GB          [  3]    ***   
       MRCC                 IMRCCC         OFF         [  0]    ***   
       MULTIPLICTY          IMULTP              1               ***   
       NACOUPLING           IVCOUP         OFF         [  0]    ***   
       NEGEVAL              IDIE           ABORT       [  0]    ***   
       NEWNORM              INEWNO         OFF         [  0]    ***   
       NON-HF               INONHF         OFF         [  0]    ***   
       NTOP_TAMP            ITOPT2             15               ***   
       NUC_MODEL            INUCMO         POINT       [  0]    ***   
       OCCUPATION           IOCCU   23, 11, 11,  3,
       OPEN-SHELL           IOPEN          SPIN-ORBITAL[  0]    ***   
       OPTVIB               IOPTVB         OFF         [  0]    ***   
       ORBITALS             IORBTP         STANDARD    [  0]    ***   
       PARALLEL             IPARAL         ON          [  1]    ***   
       PARA_INT             IPINTS         ON          [  1]    ***   
       PARA_PRINT           IPPRIN              0               ***   
       PERT_ORB             IPTORB         CANONICAL   [  1]    ***   
       POINTS               IGRDFD              0               ***   
       PRINT                IPRNT               0               ***   
       PROPS                IPROPS         OFF         [  0]    ***   
       PROP_INTEGR          IINTYP         INTERNAL    [  0]    ***   
       PSI                  IPSI           OFF         [  0]    ***   
       QC_ALG               IQCALG         FLM         [  0]    ***   
       QC_LINALG            IQCLIN         TRIDIAG     [  2]    ***   
       QC_MAXCYC            IQCMAX          10D-100           cycles  
       QC_MAXSCFCY          IQCMSC          10D- 15           cycles  
       QC_RTRUST            IQCRTR          10D-  0           x 10-3  
       QC_SKIPSCF           IQCSKI         OFF         [  0]    ***   
       QC_START             IQCSTA          10D-  1             ***   
       QRHFGUESS            IQGUES         OFF         [  0]    ***   
       QUARTIC              IQUART         OFF         [  0]    ***   
       RAMAN_INT            IRAMIN         OFF         [  0]    ***   
       RAMAN_ORB            IRAMRE         UNRELAXED   [  0]    ***   
       RDO                  IRDOFM         ON          [  1]    ***   
       REDUCE_REPR          REDREP         Ir          [  0]    ***   
       REFERENCE            IREFNC         RHF         [  0]    ***   
       RELATIVIST           IRELAT         OFF         [  0]    ***   
       RELAX_DENS           IRDENS         ON          [  1]    ***   
       RESET_FLAGS          IRESET         OFF         [  0]    ***   
       RESTART_CC           ICCRES         OFF         [  0]    ***   
       ROT_EVEC             ROTVEC              0               ***   
       SAVE_INTS            ISVINT         OFF         [  0]    ***   
       SCALE_ON             ISTCRT              0               ***   
       SCF_CONV             ISCFCV          10D-  8             ***   
       SCF_DAMPING          IDAMP             500             x 10-3  
       SCF_EXPORDE          IRPPOR              6               ***   
       SCF_EXPSTAR          IRPPLS              8               ***   
       SCF_EXTRAPO          IRPP           ON          [  1]    ***   
       SCF_MAXCYC           ISCFCY            500              cycles 
       SCF_NOSTOP           ISCFST         OFF         [  0]    ***   
       SCF_PRINT            ISCFPR              0               ***   
       SCF_PROG             ISCFPR         SCF         [  0]    ***   
       SD_FIELD             IFINSD              0             x 10-6  
       SOPERT               IPERSO         OFF         [  0]    ***   
       SPHERICAL            IDFGHI         ON          [  1]    ***   
       SPINORBIT            ISOCAL         OFF         [  0]    ***   
       SPINROTATIO          ISRCON         OFF         [  0]    ***   
       SPIN_FLIP            ISPFLP         OFF         [  0]    ***   
       SPIN_ORBIT           ISPORB         OFF         [  0]    ***   
       SPIN_SCAL            ISCSMP         OFF         [  0]    ***   
       STEEPSCALE           ISTPSC              1000          x 10-3  
       SUBGROUP             ISUBGP         DEFAULT     [  0]    ***   
       SUBGRPAXIS           ISBXYZ         X           [  0]    ***   
       SYMMETRY             ISYM           ON          [  0]    ***   
       SYM_CHECK            ISYMCK         OVERRIDE    [  1]    ***   
       T3_EXTRAPOL          IT3EXT         OFF         [  0]    ***   
       T4_EXTRAPOL          IT4EXP         OFF         [  0]    ***   
       TAMP_SUM             IEVERY              5               ***   
       TESTSUITE            ITESTS         OFF         [  0]    ***   
       THERMOCH             ITHERM         OFF         [  0]    ***   
       TOL_CHOLESK          ITOLCH          10D-  4             ***   
       TRANGRAD             IRESRM         OFF         [  0]    ***   
       TRANS_INV            ITRAIN         USE         [  0]    ***   
       TREAT_PERT           ITREAT         SIMULTANEOUS[  0]    ***   
       TRIP_ALGORI          ITRALG         NORMAL      [  0]    ***   
       UIJ_THRESHO          IUIJTH              1               ***   
       UNITS                IUNITS         ANGSTROM    [  0]    ***   
       UNOS                 IUNOS          OFF         [  0]    ***   
       UPDATE_HESS          IHUPDT         ON          [  1]    ***   
       VIBPHASE             ISETPH         STANDARD    [  0]    ***   
       VIBRATION            IVIB           NO          [  0]    ***   
       VIB_ALGORIT          IGEALG         STANDARD    [  0]    ***   
       VNATORB              IVNORB         OFF         [  0]    ***   
       VTRAN                IVTRAN         FULL/PARTIAL[  0]    ***   
       XFIELD               IXEFLD              0             x 10-6  
       XFORM_TOL            IXFTOL          10D- 11             ***   
       YFIELD               IYEFLD              0             x 10-6  
       ZFIELD               IZEFLD              0             x 10-6  
       ZSCALE_EXP           IZEXPS         OFF         [  0]    ***   
    -------------------------------------------------------------------
  11 entries found in Z-matrix 
   Job Title : Optimization on FeCO5                                                           
   There are  9 unique internal coordinates.
   Of these,  4 will be optimized.
   User supplied Z-matrix: 
--------------------------------------------------------------------------------
       SYMBOL    BOND      LENGTH    ANGLE     ANGLE     DIHED     ANGLE
                  TO      (ANGST)    WRT      (DEG)      WRT      (DEG)
--------------------------------------------------------------------------------
        Fe   
        C          1         rFeCA
        C          1         rFeCE      2        a90  
        C          1         rFeCE      3        a120       2        dn90 
        C          1         rFeCE      3        a120       2        d90  
        C          1         rFeCA      3        a90        4        dn90 
        O          1         rFeOA      3        a90        4        d90  
        O          1         rFeOA      3        a90        4        dn90 
        O          1         rFeOE      2        a90        3        d0   
        O          1         rFeOE      2        a90        4        d0   
        O          1         rFeOE      2        a90        5        d0   
                  *Initial values for internal coordinates* 
                      Name             Value
                        rFeCA           1.8295658558
                        rFeCE           1.8304279377
                        a90            90.0000000000
                        a120          120.0000000000
                        dn90          -90.0000000000
                        d90            90.0000000000
                        rFeOA           2.9838000837
                        rFeOE           2.9875299886
                        d0              0.0000000000
--------------------------------------------------------------------------------
  filter applied 
  filter applied 
   Rotational constants (in cm-1): 
          0.0263568807             0.0263568807             0.0307118455
   Rotational constants (in MHz): 
        790.1595147912           790.1595147912           920.7180943059
********************************************************************************
   The full molecular point group is D3h .
   The largest Abelian subgroup of the full molecular point group is C2v .
   The computational point group is C2v .
********************************************************************************
--------------------------------------------------------------------------------
   Analysis of internal coordinates specified by Z-matrix 
--------------------------------------------------------------------------------
   *The nuclear repulsion energy is  794.324169968254409 a.u.
   *There are   4 degrees of freedom within the tot. symm. molecular subspace.
   *Z-matrix requests optimization of   4 coordinates.
   *The optimization is unconstrained and your Z-matrix is great.
--------------------------------------------------------------------------------


 ----------------------------------------------------------------
         Coordinates used in calculation (QCOMP) 
 ----------------------------------------------------------------
 Z-matrix   Atomic            Coordinates (in bohr)
  Symbol    Number           X              Y              Z
 ----------------------------------------------------------------
     FE       26         0.00000000     0.00000000     0.00000000
     C         6         0.00000000    -3.45737912     0.00000000
     C         6        -2.99558899     0.00000000    -1.72950411
     C         6        -0.00000000     0.00000000     3.45900822
     C         6         2.99558899    -0.00000000    -1.72950411
     C         6        -0.00000000     3.45737912     0.00000000
     O         8        -0.00000000    -5.63856615     0.00000000
     O         8        -0.00000000     5.63856615     0.00000000
     O         8        -4.88924571    -0.00000000    -2.82280733
     O         8        -0.00000000    -0.00000000     5.64561465
     O         8         4.88924571    -0.00000000    -2.82280733
 ----------------------------------------------------------------

   Interatomic distance matrix (Angstroms) 

                 FE            C             C             C             C    
                [ 1]        [ 2]        [ 3]        [ 4]        [ 5]
  FE   [ 1]     0.00000
  C    [ 2]     1.82957     0.00000
  C    [ 3]     1.83043     2.58801     0.00000
  C    [ 4]     1.83043     2.58801     3.17039     0.00000
  C    [ 5]     1.83043     2.58801     3.17039     3.17039     0.00000
  C    [ 6]     1.82957     3.65913     2.58801     2.58801     2.58801
  O    [ 7]     2.98380     1.15423     3.50050     3.50050     3.50050
  O    [ 8]     2.98380     4.81337     3.50050     3.50050     3.50050
  O    [ 9]     2.98753     3.50323     1.15710     4.21239     4.21239
  O    [10]     2.98753     3.50323     4.21239     1.15710     4.21239
  O    [11]     2.98753     3.50323     4.21239     4.21239     1.15710

                 C             O             O             O             O    
                [ 6]        [ 7]        [ 8]        [ 9]        [10]
  C    [ 6]     0.00000
  O    [ 7]     4.81337     0.00000
  O    [ 8]     1.15423     5.96760     0.00000
  O    [ 9]     3.50323     4.22237     4.22237     0.00000
  O    [10]     3.50323     4.22237     4.22237     5.17455     0.00000
  O    [11]     3.50323     4.22237     4.22237     5.17455     5.17455

                 O    
                [11]
  O    [11]     0.00000
 rotcon2
   Rotational constants (in cm-1): 
          0.0263568807             0.0307118455             0.0263568807
   Rotational constants (in MHz): 
        790.1595147912           920.7180943059           790.1595147912
  ECPDATA file not present.   Using default ECPDATA. 
  There are  19 frozen-core orbitals.
  There are  368 basis functions.
 @CHECKOUT-I, Total execution time (CPU/WALL):        1.32/       0.50 seconds.
--executable xjoda finished with status     0 in        0.54 seconds (walltime).
 --invoking executable--
/opt/cfour/2.1/bin/xvmol
 SERIAL VERSION OF MOLECULE STARTED
********************************************************************************
                    INPUT FROM MOL FILE
********************************************************************************
INTGRL        1    0    1    0    0    0    0    0    0                         
         *** CFOUR Program System (Release V0.1) ***                            
Optimization on FeCO5                                                           
    7    2 X  Y       0.10E-08              0    0                              
   9999.00      3.00                                                            
         26.00000000    1    5    1    1    1    1    1                         
FE#1   0.000000000000000   0.000000000000000   0.000000000000000                
   20    7                                                                      
   4316265.0000000000        8.0488029999999998E-006  -4.1559539999999997E-006  
   646342.40000000002        6.2583059999999998E-005  -3.2314010000000003E-005  
   147089.70000000001        3.2902389999999999E-004  -1.6995250000000000E-004  
   41661.519999999997        1.3873550000000001E-003  -7.1713690000000004E-004  
   13590.770000000000        5.0232560000000002E-003  -2.6036250000000000E-003  
   4905.7500000000000        1.6101399999999998E-002  -8.3991090000000001E-003  
   1912.7460000000001        4.5900339999999998E-002  -2.4341089999999999E-002  
   792.60429999999997       0.11361540000000001       -6.2519480000000002E-002  
   344.80650000000003       0.22838690000000000      -0.13659289999999999       
   155.89990000000000       0.32211590000000001      -0.23127070000000000       
   72.230909999999994       0.23836610000000000      -0.23837340000000001       
   32.725059999999999        7.4046669999999995E-002   3.1238370000000001E-002  
   15.667619999999999        9.2141970000000004E-002  0.50868179999999996      -
   7.5034830000000001        9.3397900000000006E-002  0.49876949999999998      -
   3.3122229999999999        1.5739650000000001E-002   9.0335520000000002E-002  
   1.5584709999999999       -4.1866819999999998E-004  -6.0053370000000003E-003  
  0.68391400000000002        5.3763179999999999E-005   2.3124539999999999E-004  
  0.14675700000000000       -3.8166539999999997E-005  -5.6436799999999999E-004  
   7.0583000000000007E-002   4.3196030000000000E-005   4.9922599999999997E-004  
   3.1448999999999998E-002  -3.4010190000000000E-006  -1.0152930000000000E-004  
   16    6                                                                      
   17745.689999999999        4.1000000000000000E-005  -1.5000000000000000E-005  
   4200.7209999999995        3.6900000000000002E-004  -1.2999999999999999E-004  
   1364.4290000000001        2.1289999999999998E-003  -7.5100000000000004E-004  
   522.08060000000000        9.3690000000000006E-003  -3.3289999999999999E-003  
   221.45949999999999        3.3097000000000001E-002  -1.1912000000000001E-002  
   100.90960000000000        9.4431000000000001E-002  -3.4932999999999999E-002  
   48.401150000000001       0.20807700000000001       -7.9989000000000005E-002  
   23.985360000000000       0.33233299999999999      -0.13463600000000001       
   12.182499999999999       0.33298699999999998      -0.13859800000000000       
   6.2422979999999999       0.15684300000000001        3.0277999999999999E-002  
   3.1109439999999999        2.1548999999999999E-002  0.33321600000000001      -
   1.5099579999999999       -2.0950000000000001E-003  0.45615299999999998      -
  0.71084499999999995       -1.7390000000000001E-003  0.28505100000000000       
  0.27318999999999999       -2.9999999999999997E-004   4.6143999999999998E-002  
  0.10423300000000001        2.9000000000000000E-005  -3.2490000000000002E-003 -
   3.8290999999999999E-002  -1.1000000000000000E-005   1.3569999999999999E-003 -
    8    4                                                                      
   113.34399999999999        3.5300000000000002E-003  -3.8899999999999998E-003  
   33.641399999999997        2.5784000000000001E-002  -2.8441999999999999E-002  
   12.331000000000000        9.9118999999999999E-002 -0.11242900000000000       
   4.9947800000000004       0.23907300000000001      -0.27425699999999997       
   2.0728000000000000       0.35719899999999999      -0.31554599999999999       
  0.83075299999999996       0.36218800000000001        5.7109000000000000E-002 -
  0.30917800000000001       0.23646100000000000       0.56360399999999999       
  0.10013000000000000        6.0117999999999998E-002  0.38463700000000001       
    2    2                                                                      
   3.2757999999999998        1.0000000000000000        0.0000000000000000       
  0.79200000000000004        0.0000000000000000        1.0000000000000000       
    1    1                                                                      
   2.0897000000000001        1.0000000000000000                                 
          6.00000000    1    4    1    1    1    1                              
C #2   0.000000000000000  -3.457379119003190   0.000000000000000                
   10    4                                                                      
   8236.0000000000000        5.3100000000000000E-004   0.0000000000000000       
   1235.0000000000000        4.1079999999999997E-003   0.0000000000000000       
   280.80000000000001        2.1087000000000002E-002   0.0000000000000000       
   79.269999999999996        8.1852999999999995E-002   0.0000000000000000       
   25.590000000000000       0.23481700000000000        0.0000000000000000       
   8.9969999999999999       0.43440099999999998        0.0000000000000000      -
   3.3190000000000000       0.34612900000000002        0.0000000000000000      -
  0.90590000000000004        3.9378000000000003E-002   1.0000000000000000       
  0.36430000000000001       -8.9829999999999997E-003   0.0000000000000000       
  0.12850000000000000        2.3850000000000000E-003   0.0000000000000000       
    5    3                                                                      
   18.710000000000001        0.0000000000000000        1.4031000000000000E-002  
   4.1330000000000000        0.0000000000000000        8.6865999999999999E-002  
   1.2000000000000000        0.0000000000000000       0.29021599999999997       
  0.38269999999999998        1.0000000000000000       0.50100800000000001       
  0.12089999999999999        0.0000000000000000       0.34340599999999999       
    2    2                                                                      
   1.0970000000000000        1.0000000000000000        0.0000000000000000       
  0.31800000000000000        0.0000000000000000        1.0000000000000000       
    1    1                                                                      
  0.76100000000000001        1.0000000000000000                                 
          6.00000000    1    4    1    1    1    1                              
C #3  -2.995588988735656   0.000000000000000  -1.729504109028010                
   10    4                                                                      
   8236.0000000000000        5.3100000000000000E-004   0.0000000000000000       
   1235.0000000000000        4.1079999999999997E-003   0.0000000000000000       
   280.80000000000001        2.1087000000000002E-002   0.0000000000000000       
   79.269999999999996        8.1852999999999995E-002   0.0000000000000000       
   25.590000000000000       0.23481700000000000        0.0000000000000000       
   8.9969999999999999       0.43440099999999998        0.0000000000000000      -
   3.3190000000000000       0.34612900000000002        0.0000000000000000      -
  0.90590000000000004        3.9378000000000003E-002   1.0000000000000000       
  0.36430000000000001       -8.9829999999999997E-003   0.0000000000000000       
  0.12850000000000000        2.3850000000000000E-003   0.0000000000000000       
    5    3                                                                      
   18.710000000000001        0.0000000000000000        1.4031000000000000E-002  
   4.1330000000000000        0.0000000000000000        8.6865999999999999E-002  
   1.2000000000000000        0.0000000000000000       0.29021599999999997       
  0.38269999999999998        1.0000000000000000       0.50100800000000001       
  0.12089999999999999        0.0000000000000000       0.34340599999999999       
    2    2                                                                      
   1.0970000000000000        1.0000000000000000        0.0000000000000000       
  0.31800000000000000        0.0000000000000000        1.0000000000000000       
    1    1                                                                      
  0.76100000000000001        1.0000000000000000                                 
          6.00000000    1    4    1    1    1    1                              
C #4  -0.000000000000001   0.000000000000000   3.459008218056020                
   10    4                                                                      
   8236.0000000000000        5.3100000000000000E-004   0.0000000000000000       
   1235.0000000000000        4.1079999999999997E-003   0.0000000000000000       
   280.80000000000001        2.1087000000000002E-002   0.0000000000000000       
   79.269999999999996        8.1852999999999995E-002   0.0000000000000000       
   25.590000000000000       0.23481700000000000        0.0000000000000000       
   8.9969999999999999       0.43440099999999998        0.0000000000000000      -
   3.3190000000000000       0.34612900000000002        0.0000000000000000      -
  0.90590000000000004        3.9378000000000003E-002   1.0000000000000000       
  0.36430000000000001       -8.9829999999999997E-003   0.0000000000000000       
  0.12850000000000000        2.3850000000000000E-003   0.0000000000000000       
    5    3                                                                      
   18.710000000000001        0.0000000000000000        1.4031000000000000E-002  
   4.1330000000000000        0.0000000000000000        8.6865999999999999E-002  
   1.2000000000000000        0.0000000000000000       0.29021599999999997       
  0.38269999999999998        1.0000000000000000       0.50100800000000001       
  0.12089999999999999        0.0000000000000000       0.34340599999999999       
    2    2                                                                      
   1.0970000000000000        1.0000000000000000        0.0000000000000000       
  0.31800000000000000        0.0000000000000000        1.0000000000000000       
    1    1                                                                      
  0.76100000000000001        1.0000000000000000                                 
          8.00000000    1    4    1    1    1    1                              
O #5  -0.000000000000000  -5.638566150538215   0.000000000000000                
   10    4                                                                      
   15330.000000000000        5.0799999999999999E-004   0.0000000000000000       
   2299.0000000000000        3.9290000000000002E-003   0.0000000000000000       
   522.39999999999998        2.0243000000000001E-002   0.0000000000000000       
   147.30000000000001        7.9181000000000001E-002   0.0000000000000000       
   47.549999999999997       0.23068700000000000        0.0000000000000000       
   16.760000000000002       0.43311800000000000        0.0000000000000000      -
   6.2069999999999999       0.35026000000000002        0.0000000000000000      -
   1.7520000000000000        4.2728000000000002E-002   1.0000000000000000       
  0.68820000000000003       -8.1539999999999998E-003   0.0000000000000000       
  0.23840000000000000        2.3809999999999999E-003   0.0000000000000000       
    5    3                                                                      
   34.460000000000001        0.0000000000000000        1.5928000000000001E-002  
   7.7489999999999997        0.0000000000000000        9.9739999999999995E-002  
   2.2799999999999998        0.0000000000000000       0.31049199999999999       
  0.71560000000000001        1.0000000000000000       0.49102600000000002       
  0.21400000000000000        0.0000000000000000       0.33633700000000000       
    2    2                                                                      
   2.3140000000000001        1.0000000000000000        0.0000000000000000       
  0.64500000000000002        0.0000000000000000        1.0000000000000000       
    1    1                                                                      
   1.4279999999999999        1.0000000000000000                                 
          8.00000000    1    4    1    1    1    1                              
O #6  -4.889245707483187  -0.000000000000000  -2.822807325349641                
   10    4                                                                      
   15330.000000000000        5.0799999999999999E-004   0.0000000000000000       
   2299.0000000000000        3.9290000000000002E-003   0.0000000000000000       
   522.39999999999998        2.0243000000000001E-002   0.0000000000000000       
   147.30000000000001        7.9181000000000001E-002   0.0000000000000000       
   47.549999999999997       0.23068700000000000        0.0000000000000000       
   16.760000000000002       0.43311800000000000        0.0000000000000000      -
   6.2069999999999999       0.35026000000000002        0.0000000000000000      -
   1.7520000000000000        4.2728000000000002E-002   1.0000000000000000       
  0.68820000000000003       -8.1539999999999998E-003   0.0000000000000000       
  0.23840000000000000        2.3809999999999999E-003   0.0000000000000000       
    5    3                                                                      
   34.460000000000001        0.0000000000000000        1.5928000000000001E-002  
   7.7489999999999997        0.0000000000000000        9.9739999999999995E-002  
   2.2799999999999998        0.0000000000000000       0.31049199999999999       
  0.71560000000000001        1.0000000000000000       0.49102600000000002       
  0.21400000000000000        0.0000000000000000       0.33633700000000000       
    2    2                                                                      
   2.3140000000000001        1.0000000000000000        0.0000000000000000       
  0.64500000000000002        0.0000000000000000        1.0000000000000000       
    1    1                                                                      
   1.4279999999999999        1.0000000000000000                                 
          8.00000000    1    4    1    1    1    1                              
O #7  -0.000000000000000  -0.000000000000000   5.645614650699281                
   10    4                                                                      
   15330.000000000000        5.0799999999999999E-004   0.0000000000000000       
   2299.0000000000000        3.9290000000000002E-003   0.0000000000000000       
   522.39999999999998        2.0243000000000001E-002   0.0000000000000000       
   147.30000000000001        7.9181000000000001E-002   0.0000000000000000       
   47.549999999999997       0.23068700000000000        0.0000000000000000       
   16.760000000000002       0.43311800000000000        0.0000000000000000      -
   6.2069999999999999       0.35026000000000002        0.0000000000000000      -
   1.7520000000000000        4.2728000000000002E-002   1.0000000000000000       
  0.68820000000000003       -8.1539999999999998E-003   0.0000000000000000       
  0.23840000000000000        2.3809999999999999E-003   0.0000000000000000       
    5    3                                                                      
   34.460000000000001        0.0000000000000000        1.5928000000000001E-002  
   7.7489999999999997        0.0000000000000000        9.9739999999999995E-002  
   2.2799999999999998        0.0000000000000000       0.31049199999999999       
  0.71560000000000001        1.0000000000000000       0.49102600000000002       
  0.21400000000000000        0.0000000000000000       0.33633700000000000       
    2    2                                                                      
   2.3140000000000001        1.0000000000000000        0.0000000000000000       
  0.64500000000000002        0.0000000000000000        1.0000000000000000       

Running with 32 threads/proc

    1    1                                                                      
   1.4279999999999999        1.0000000000000000                                 
FINISH                                                                          

********************************************************************************
 ONE- AND TWO-ELECTRON INTEGRALS OVER SYMMETRY-ADAPTED AOS ARE CALCULATED.

  SPHERICAL HARMONICS ARE USED.
  
  INTEGRALS LESS THAN  0.10E-13 ARE NEGLECTED.

  NUCLEAR REPULSION ENERGY :  794.3241699683 A.U.
  @MOLECU-I, ONE ELECTRON INTEGRALS (CPU/WALL):        1.11/       0.22 SECONDS.
  @TWOEL-I,   49987976 INTEGRALS OF SYMMETRY TYPE  I I I I
  @TWOEL-I,  190010459 INTEGRALS OF SYMMETRY TYPE  I J I J
  @TWOEL-I,   98684661 INTEGRALS OF SYMMETRY TYPE  I I J J
  @TWOEL-I,  145091594 INTEGRALS OF SYMMETRY TYPE  I J K L
  @TWOEL-I, TOTAL NUMBER OF 2-E INTEGRALS  483774690.
  @MOLECU-I, TWO ELECTRON INTEGRALS (CPU/WALL):     4214.87/     190.76 SECONDS.
 @CHECKOUT-I, Total execution time (CPU/WALL):     4216.12/     190.99 seconds.
--executable xvmol finished with status     0 in      191.02 seconds (walltime).
 --invoking executable--
/opt/cfour/2.1/bin/xvmol2ja
 @GETMEM-I,  Allocated   30517 MB of main memory.
 @CHECKOUT-I, Total execution time (CPU/WALL):        0.34/       0.03 seconds.
--executable xvmol2ja finished with status     0 in        0.07 seconds (walltime).
 --invoking executable--
/opt/cfour/2.1/bin/xvscf
  There are  368 functions in the AO basis.

  There are 4 irreducible representations.

       Irrep        # of functions
         1                134
         2                 90
         3                 90
         4                 54


  Parameters for SCF calculation: 
        SCF reference function:  RHF  
  Maximum number of iterations:  500
     Full symmetry point group: D3h 
     Computational point group: C2v 
        Initial density matrix: MOREAD                 
     SCF convergence tolerance: 10**(- 8)
  DIIS convergence acceleration:  ON
          Latest start for DIIS:   8
                     DIIS order:   6

     Alpha population by irrep:  23   11   11    3
      Beta population by irrep:  23   11   11    3


  Memory information:    6138177 words required.
  Fock matrices are constructed from AO integral file.
 @GETMEM-I,  Allocated      46 MB of main memory.
  Initialization and symmetry analysis required      0.003 seconds.

 total no. of electrons in initial guess :   0.0000000000000000     
  --------------------------------------------------------------------
  Iteration         Total Energy            Largest Density Difference
  --------------------------------------------------------------------
       0           794.324169968254751              0.0000000000D+00
   current occupation vector 
    23 11 11  3
    23 11 11  3
  applying damping factor of   0.50000000000000000     
       1          -759.220722441884732              0.2979508370D+04
   current occupation vector 
    23 11 11  3
    23 11 11  3
  applying damping factor of   0.50000000000000000     
       2         -1356.265592574770835              0.1465502950D+04
   current occupation vector 
    23 11 11  3
    23 11 11  3
  applying damping factor of   0.50000000000000000     
       3         -1585.349117642746933              0.6550883868D+03
   current occupation vector 
    23 11 11  3
    23 11 11  3
  applying damping factor of   0.50000000000000000     
       4         -1688.986660877679697              0.4064047481D+03
   current occupation vector 
    23 11 11  3
    23 11 11  3
  applying damping factor of   0.50000000000000000     
       5         -1738.246040505349356              0.3054135148D+03
   current occupation vector 
    23 11 11  3
    23 11 11  3
  applying damping factor of   0.50000000000000000     
       6         -1761.574743115500496              0.1593449661D+03
   current occupation vector 
    23 11 11  3
    23 11 11  3
  applying damping factor of   0.50000000000000000     
       7         -1773.190956015149368              0.2407943042D+03
   current occupation vector 
    23 11 11  3
    23 11 11  3
       8         -1702.148399526933645              0.3578055476D+03
   current occupation vector 
    23 11 11  3
    23 11 11  3
       9         -1821.343090355781442              0.4884700443D+03
   current occupation vector 
    23 11 11  3
    23 11 11  3
      10         -1823.482271850909001              0.6088194734D+00
   current occupation vector 
    23 11 11  3
    23 11 11  3
      11         -1823.552277517820130              0.2142593894D+01
   current occupation vector 
    23 11 11  3
    23 11 11  3
      12         -1823.982154376653853              0.2248042995D+00
   current occupation vector 
    23 11 11  3
    23 11 11  3
      13         -1826.032107567533785              0.1785180874D+01
   current occupation vector 
    23 11 11  3
    23 11 11  3
      14         -1826.108497773806903              0.3309511523D+00
   current occupation vector 
    23 11 11  3
    23 11 11  3
      15         -1826.131314558416761              0.9469231919D-01
   current occupation vector 
    23 11 11  3
    23 11 11  3
      16         -1826.135642094980085              0.1278246812D+00
   current occupation vector 
    23 11 11  3
    23 11 11  3
      17         -1826.137244071582245              0.1104818693D+00
   current occupation vector 
    23 11 11  3
    23 11 11  3
      18         -1826.137849689254836              0.3859888352D-01
   current occupation vector 
    23 11 11  3
    23 11 11  3
      19         -1826.138092084504478              0.1589263432D-01
   current occupation vector 
    23 11 11  3
    23 11 11  3
      20         -1826.138442423550259              0.3016365077D-01
   current occupation vector 
    23 11 11  3
    23 11 11  3
      21         -1826.138508703329990              0.9248062125D-02
   current occupation vector 
    23 11 11  3
    23 11 11  3
      22         -1826.138539898827730              0.7952826089D-02
   current occupation vector 
    23 11 11  3
    23 11 11  3
      23         -1826.138560514778419              0.4416115951D-02
   current occupation vector 
    23 11 11  3
    23 11 11  3
      24         -1826.138579904622475              0.8864199823D-02
   current occupation vector 
    23 11 11  3
    23 11 11  3
      25         -1826.138597032638700              0.7594271185D-02
   current occupation vector 
    23 11 11  3
    23 11 11  3
      26         -1826.138612876339266              0.1040755825D-01
   current occupation vector 
    23 11 11  3
    23 11 11  3
      27         -1826.138621589166632              0.7907134730D-02
   current occupation vector 
    23 11 11  3
    23 11 11  3
      28         -1826.138631441519919              0.1208782972D-01
   current occupation vector 
    23 11 11  3
    23 11 11  3
      29         -1826.138633125593060              0.3443987399D-02
   current occupation vector 
    23 11 11  3
    23 11 11  3
      30         -1826.138634532350352              0.4294256135D-02
   current occupation vector 
    23 11 11  3
    23 11 11  3
      31         -1826.138635214586429              0.2642941309D-02
   current occupation vector 
    23 11 11  3
    23 11 11  3
      32         -1826.138635457930377              0.1851051570D-02
   current occupation vector 
    23 11 11  3
    23 11 11  3
      33         -1826.138635587258250              0.1308940545D-02
   current occupation vector 
    23 11 11  3
    23 11 11  3
      34         -1826.138635633531067              0.6475583689D-03
   current occupation vector 
    23 11 11  3
    23 11 11  3
      35         -1826.138635663996865              0.4718561673D-03
   current occupation vector 
    23 11 11  3
    23 11 11  3
      36         -1826.138635666932714              0.3031713345D-03
   current occupation vector 
    23 11 11  3
    23 11 11  3
      37         -1826.138635675404203              0.2021800726D-03
   current occupation vector 
    23 11 11  3
    23 11 11  3
      38         -1826.138635672902183              0.1544003699D-03
   current occupation vector 
    23 11 11  3
    23 11 11  3
      39         -1826.138635677679758              0.1144682709D-03
   current occupation vector 
    23 11 11  3
    23 11 11  3
      40         -1826.138635679560593              0.6174620109D-04
   current occupation vector 
    23 11 11  3
    23 11 11  3
      41         -1826.138635682004406              0.8326401434D-04
   current occupation vector 
    23 11 11  3
    23 11 11  3
      42         -1826.138635683600114              0.7753997279D-04
   current occupation vector 
    23 11 11  3
    23 11 11  3
      43         -1826.138635686147154              0.1514415740D-03
   current occupation vector 
    23 11 11  3
    23 11 11  3
      44         -1826.138635686912039              0.7401107077D-04
   current occupation vector 
    23 11 11  3
    23 11 11  3
      45         -1826.138635687838359              0.1038266537D-03
   current occupation vector 
    23 11 11  3
    23 11 11  3
      46         -1826.138635688279010              0.8146661314D-04
   current occupation vector 
    23 11 11  3
    23 11 11  3
      47         -1826.138635688297200              0.3500737210D-04
   current occupation vector 
    23 11 11  3
    23 11 11  3
      48         -1826.138635688338582              0.2647336179D-04
   current occupation vector 
    23 11 11  3
    23 11 11  3
      49         -1826.138635688357226              0.8264843023D-05
   current occupation vector 
    23 11 11  3
    23 11 11  3
      50         -1826.138635688315844              0.9425881112D-05
   current occupation vector 
    23 11 11  3
    23 11 11  3
      51         -1826.138635688333125              0.1474903957D-05
   current occupation vector 
    23 11 11  3
    23 11 11  3
      52         -1826.138635688341765              0.1065070587D-05
   current occupation vector 
    23 11 11  3
    23 11 11  3
      53         -1826.138635688391332              0.1120739684D-05
   current occupation vector 
    23 11 11  3
    23 11 11  3
      54         -1826.138635688363138              0.2675809730D-05
   current occupation vector 
    23 11 11  3
    23 11 11  3
      55         -1826.138635688340855              0.3157270294D-05
   current occupation vector 
    23 11 11  3
    23 11 11  3
      56         -1826.138635688314025              0.1572205112D-05
   current occupation vector 
    23 11 11  3
    23 11 11  3
      57         -1826.138635688338127              0.3015482178D-05
   current occupation vector 
    23 11 11  3
    23 11 11  3
      58         -1826.138635688352679              0.4109910865D-05
   current occupation vector 
    23 11 11  3
    23 11 11  3
      59         -1826.138635688331760              0.4942924545D-06
   current occupation vector 
    23 11 11  3
    23 11 11  3
      60         -1826.138635688374507              0.3263144544D-05
   current occupation vector 
    23 11 11  3
    23 11 11  3
      61         -1826.138635688349041              0.1059859642D-05
   current occupation vector 
    23 11 11  3
    23 11 11  3
      62         -1826.138635688330851              0.4111523153D-06
   current occupation vector 
    23 11 11  3
    23 11 11  3
      63         -1826.138635688378599              0.5709003270D-07
   current occupation vector 
    23 11 11  3
    23 11 11  3
      64         -1826.138635688369959              0.1863403400D-06
   current occupation vector 
    23 11 11  3
    23 11 11  3
      65         -1826.138635688324939              0.5197576280D-07
   current occupation vector 
    23 11 11  3
    23 11 11  3
      66         -1826.138635688362228              0.1496928692D-06
   current occupation vector 
    23 11 11  3
    23 11 11  3
      67         -1826.138635688368140              0.4169733447D-07
   current occupation vector 
    23 11 11  3
    23 11 11  3
      68         -1826.138635688359500              0.6066196301D-07
   current occupation vector 
    23 11 11  3
    23 11 11  3
      69         -1826.138635688347676              0.2601769533D-07
   current occupation vector 
    23 11 11  3
    23 11 11  3
      70         -1826.138635688349495              0.3773207125D-07
   current occupation vector 
    23 11 11  3
    23 11 11  3
      71         -1826.138635688314480              0.4435545531D-07
   current occupation vector 
    23 11 11  3
    23 11 11  3
      72         -1826.138635688331306              0.5756111188D-07
   current occupation vector 
    23 11 11  3
    23 11 11  3
      73         -1826.138635688334489              0.6440221778D-07
   current occupation vector 
    23 11 11  3
    23 11 11  3
      74         -1826.138635688334034              0.1005933736D-07
   current occupation vector 
    23 11 11  3
    23 11 11  3
      75         -1826.138635688333579              0.3046239971D-07
   current occupation vector 
    23 11 11  3
    23 11 11  3
      76         -1826.138635688328122              0.3281479266D-07
   current occupation vector 
    23 11 11  3
    23 11 11  3
      77         -1826.138635688338582              0.1973066377D-07
   current occupation vector 
    23 11 11  3
    23 11 11  3
      78         -1826.138635688305840              0.2694976464D-07
   current occupation vector 
    23 11 11  3
    23 11 11  3
      79         -1826.138635688300838              0.1921758574D-07
   current occupation vector 
    23 11 11  3
    23 11 11  3

  SCF has converged.

 Density matrix saved to file den.dat
 total electron number:   95.999999999999744     
     E(SCF)=     -1826.138635688330396              0.6375862061D-08

  Eigenvector printing suppressed.

 @PUTMOS-I, Writing converged MOs to NEWMOS. 
 @PUTMOS-I, Symmetry   1 Full Blocks 33 Partial Blocksize   2
 @PUTMOS-I, Symmetry   2 Full Blocks 22 Partial Blocksize   2
 @PUTMOS-I, Symmetry   3 Full Blocks 22 Partial Blocksize   2
 @PUTMOS-I, Symmetry   4 Full Blocks 13 Partial Blocksize   2
 @PUTFOCK-I, Writing converged Fock matrix to NEWFOCK. 
 @PUTFOCK-I, Symmetry   1 Full Blocks 33 Partial Blocksize   2
 @PUTFOCK-I, Symmetry   2 Full Blocks 22 Partial Blocksize   2
 @PUTFOCK-I, Symmetry   3 Full Blocks 22 Partial Blocksize   2
 @PUTFOCK-I, Symmetry   4 Full Blocks 13 Partial Blocksize   2



  ORBITAL EIGENVALUES (ALPHA)  (1H = 27.2113834 eV)

       MO #        E(hartree)               E(eV)           FULLSYM    COMPSYM
       ----   --------------------   --------------------   -------   ---------
    1     1        -261.3557333641       -7111.8510643579    A1'         A1 (1)
    2     2         -31.9385744491        -869.0927945846    A1'         A1 (1)
    3   225         -27.4235092998        -746.2316257304    A2''        B2 (3)
    4   135         -27.4129322833        -745.9438104802     E'         B1 (2)
    5     3         -27.4129322833        -745.9438104799     E'         A1 (1)
    6   226         -20.6828937019        -562.8101503428     E          B2 (3)
    7     4         -20.6828934519        -562.8101435421     E          A1 (1)
    8     5         -20.6592992361        -562.1681122894                A1 (1)
    9     6         -20.6592992236        -562.1681119476                A1 (1)
   10   136         -20.6592992235        -562.1681119465                B1 (2)
   11   227         -11.4068970264        -310.3974483901     E          B2 (3)
   12     7         -11.4068965924        -310.3974365807     E          A1 (1)
   13     8         -11.3916257769        -309.9818965642                A1 (1)
   14     9         -11.3916235200        -309.9818351525                A1 (1)
   15   137         -11.3916235200        -309.9818351514                B1 (2)
   16    10          -4.1323250451        -112.4462811349    A1'         A1 (1)
   17   228          -2.7205820458         -74.0308011192    A2''        B2 (3)
   18   138          -2.7091054147         -73.7185061106     E'         B1 (2)
   19    11          -2.7091054147         -73.7185061105     E'         A1 (1)
   20    12          -1.5236273994         -41.4600093229    A1'         A1 (1)
   21   229          -1.5234782345         -41.4559503400    A2''        B2 (3)
   22    13          -1.5011602810         -40.8486479516    A1'         A1 (1)
   23    14          -1.5009510153         -40.8429535421     E'         A1 (1)
   24   139          -1.5009510153         -40.8429535409     E'         B1 (2)
   25    15          -0.8651865416         -23.5429226966    A1'         A1 (1)
   26   230          -0.8271450216         -22.5077603115    A2''        B2 (3)
   27    16          -0.8078340650         -21.9822824664     E'         A1 (1)
   28   140          -0.8078340650         -21.9822824654     E'         B1 (2)
   29    17          -0.8071942994         -21.9648735599    A1'         A1 (1)
   30    18          -0.7295925152         -19.8532216560    A1'         A1 (1)
   31   315          -0.6703628273         -18.2414999116     E''        A2 (4)
   32   231          -0.6703628273         -18.2414999115     E''        B2 (3)
   33   232          -0.6681522277         -18.1813464387    A2''        B2 (3)
   34   141          -0.6668437860         -18.1457419283     E'         B1 (2)
   35    19          -0.6668437860         -18.1457419280     E'         A1 (1)
   36   142          -0.6457339828         -17.5713149796     E'         B1 (2)
   37    20          -0.6457339827         -17.5713149786     E'         A1 (1)
   38   143          -0.6348100959         -17.2740609055    A2'         B1 (2)
   39   233          -0.6282057824         -17.0943483989     E''        B2 (3)
   40   316          -0.6282057824         -17.0943483984     E''        A2 (4)
   41   144          -0.6243210420         -16.9886392383     E'         B1 (2)
   42    21          -0.6243210420         -16.9886392381     E'         A1 (1)
   43    22          -0.6062478744         -16.4968433455    A1'         A1 (1)
   44   234          -0.6031129337         -16.4115372720    A2''        B2 (3)
   45   235          -0.4819070843         -13.1133584339     E''        B2 (3)
   46   317          -0.4819070841         -13.1133584283     E''        A2 (4)
   47   145          -0.3486535430          -9.4873452323     E'         B1 (2)
   48    23          -0.3486535428          -9.4873452281     E'         A1 (1)
  +++++++++++++++++++++++++++++++++++++++++++++++++++++++++++++++++++++++++++++
   49    24           0.0697904439           1.8990945280    A1'         A1 (1)
   50   236           0.0894779714           2.4348193868     E''        B2 (3)
   51   318           0.0894779715           2.4348193887     E''        A2 (4)
   52   237           0.0981428731           2.6706033490    A2''        B2 (3)
   53   146           0.1013997555           2.7592276240     E'         B1 (2)
   54    25           0.1013997555           2.7592276248     E'         A1 (1)
   55   147           0.1278896121           3.4800532688     E'         B1 (2)
   56    26           0.1278896122           3.4800532695     E'         A1 (1)
   57   148           0.1337935672           3.6407080530    A2'         B1 (2)
   58   238           0.1421958824           3.8693466741    A2''        B2 (3)
   59   149           0.1446205393           3.9353249421     E'         B1 (2)
   60    27           0.1446205393           3.9353249435     E'         A1 (1)
   61   239           0.2060463280           5.6068056300     E''        B2 (3)
   62   319           0.2060463280           5.6068056305     E''        A2 (4)
   63    28           0.2520820072           6.8595001475    A1'         A1 (1)
   64    29           0.3259922551           8.8707002389    A1'         A1 (1)
   65    30           0.3287633788           8.9461063473     E'         A1 (1)
   66   150           0.3287633792           8.9461063591     E'         B1 (2)
   67    31           0.3485360219           9.4841473220    A1'         A1 (1)
   68   240           0.3896557254          10.6030713367    A2''        B2 (3)
   69   241           0.4081126194          11.1053089580     E''        B2 (3)
   70   320           0.4081126194          11.1053089582     E''        A2 (4)
   71    32           0.4138094111          11.2603265391    A1'         A1 (1)
   72   242           0.4439606737          12.0807841078     E''        B2 (3)
   73   321           0.4439606738          12.0807841080     E''        A2 (4)
   74    33           0.4621222219          12.5749849583     E'         A1 (1)
   75   151           0.4621222225          12.5749849747     E'         B1 (2)
   76    34           0.4850430014          13.1986910768     E'         A1 (1)
   77   152           0.4850430015          13.1986910787     E'         B1 (2)
   78   243           0.5130143469          13.9598300840    A2''        B2 (3)
   79   153           0.5261794703          14.3180713037    A2'         B1 (2)
   80   154           0.5558014760          15.1241270582     E'         B1 (2)
   81    35           0.5558014760          15.1241270590     E'         A1 (1)
   82    36           0.5876565535          15.9909477859    A1'         A1 (1)
   83   244           0.6037253404          16.4282017066     E''        B2 (3)
   84   322           0.6037253404          16.4282017069     E''        A2 (4)
   85    37           0.6341284514          17.2555124164    A1'         A1 (1)
   86   245           0.6432410687          17.5034793393    A2''        B2 (3)
   87    38           0.6596401456          17.9497209092     E'         A1 (1)
   88   155           0.6596401470          17.9497209458     E'         B1 (2)
   89    39           0.6943183577          18.8933630330     E'         A1 (1)
   90   156           0.6943183578          18.8933630349     E'         B1 (2)
   91    40           0.7065217302          19.2254336814    A1'         A1 (1)
   92   246           0.7204022516          19.6031418703    A2''        B2 (3)
   93   247           0.7447714063          20.2662602814    A2''        B2 (3)
   94    41           0.7563801349          20.5821498471    A1'         A1 (1)
   95    42           0.7569390963          20.5973599605     E'         A1 (1)
   96   157           0.7569390964          20.5973599613     E'         B1 (2)
   97   323           0.8163751397          22.2146969234    A1''        A2 (4)
   98    43           0.8386513351          22.8208630186     E'         A1 (1)
   99   158           0.8386513351          22.8208630190     E'         B1 (2)
  100   248           0.8435438598          22.9539953829     E''        B2 (3)
  101   324           0.8435438598          22.9539953834     E''        A2 (4)
  102   249           0.8631164492          23.4865926191     E''        B2 (3)
  103   325           0.8631164493          23.4865926197     E''        A2 (4)
  104    44           0.8787523665          23.9120675589    A1'         A1 (1)
  105    45           0.8850033788          24.0821662508     E'         A1 (1)
  106   159           0.8850033789          24.0821662526     E'         B1 (2)
  107   160           0.8995712597          24.4785784426    A2'         B1 (2)
  108   250           0.9132246918          24.8501072181    A2''        B2 (3)
  109    46           0.9364705236          25.4826584607     E'         A1 (1)
  110   161           0.9364705237          25.4826584622     E'         B1 (2)
  111   326           0.9732918257          26.4846170291     E''        A2 (4)
  112   251           0.9732918257          26.4846170294     E''        B2 (3)
  113   252           0.9890578079          26.9136312155     E''        B2 (3)
  114   327           0.9890578079          26.9136312156     E''        A2 (4)
  115   253           1.0616902730          28.8900610701    A2''        B2 (3)
  116    47           1.0754632993          29.2648441692    A1'         A1 (1)
  117    48           1.0785778036          29.3495941415     E'         A1 (1)
  118   162           1.0785778048          29.3495941719     E'         B1 (2)
  119    49           1.1129941044          30.2861092979     E'         A1 (1)
  120   163           1.1129941062          30.2861093458     E'         B1 (2)
  121   254           1.1396222875          31.0106989970     E''        B2 (3)
  122   328           1.1396222875          31.0106989973     E''        A2 (4)
  123   164           1.1567249206          31.4760853025    A2'         B1 (2)
  124    50           1.1921049775          32.4388255946    A1'         A1 (1)
  125    51           1.2496136627          34.0037164764     E'         A1 (1)
  126   165           1.2496136660          34.0037165670     E'         B1 (2)
  127   255           1.2830535460          34.9136619634    A2''        B2 (3)
  128    52           1.2851095082          34.9696075373    A1'         A1 (1)
  129    53           1.3260187712          36.0828051780     E'         A1 (1)
  130   166           1.3260187727          36.0828052186     E'         B1 (2)
  131    54           1.3534255002          36.8285801882    A1'         A1 (1)
  132   256           1.4343879726          39.0316810665     E''        B2 (3)
  133   329           1.4343879726          39.0316810668     E''        A2 (4)
  134    55           1.4819393057          40.3256186217     E'         A1 (1)
  135   167           1.4819393063          40.3256186392     E'         B1 (2)
  136   257           1.4844527687          40.3940134279    A2''        B2 (3)
  137    56           1.4985475440          40.7775517633    A1'         A1 (1)
  138    57           1.5481250516          42.1266243316     E'         A1 (1)
  139   168           1.5481250517          42.1266243323     E'         B1 (2)
  140   258           1.5932622094          43.3548688364    A2''        B2 (3)
  141   259           1.7105926932          46.5475936169     E''        B2 (3)
  142   330           1.7105926932          46.5475936170     E''        A2 (4)
  143    58           1.7533628507          47.7114287696    A1'         A1 (1)
  144    59           1.7534625758          47.7141424288     E'         A1 (1)
  145   169           1.7534625759          47.7141424312     E'         B1 (2)
  146   331           1.7714983961          48.2049220500    A1''        A2 (4)
  147   332           1.8257259033          49.6805275368     E''        A2 (4)
  148   260           1.8257259033          49.6805275371     E''        B2 (3)
  149   333           1.8665913232          50.7925321472     E''        A2 (4)
  150   261           1.8665913232          50.7925321473     E''        B2 (3)
  151    60           1.8805111046          51.1713086544     E'         A1 (1)
  152   170           1.8805111047          51.1713086572     E'         B1 (2)
  153    61           1.9326573859          52.5902811074    A1'         A1 (1)
  154    62           1.9346699857          52.6450467333     E'         A1 (1)
  155   171           1.9346699858          52.6450467372     E'         B1 (2)
  156    63           2.0186145596          54.9292947181    A1'         A1 (1)
  157   172           2.1707069470          59.0679389840    A2'         B1 (2)
  158    64           2.1753662962          59.1947263201     E'         A1 (1)
  159   173           2.1753662964          59.1947263256     E'         B1 (2)
  160   262           2.1768689040          59.2356143591    A2''        B2 (3)
  161   263           2.2130857985          60.2211261596     E''        B2 (3)
  162   334           2.2130857985          60.2211261601     E''        A2 (4)
  163    65           2.2803392235          62.0511848915    A1'         A1 (1)
  164    66           2.2944600157          62.4354311841     E'         A1 (1)
  165   174           2.2944600158          62.4354311855     E'         B1 (2)
  166   264           2.3011669805          62.6179369725     E''        B2 (3)
  167   335           2.3011669805          62.6179369730     E''        A2 (4)
  168   265           2.3512271805          63.9801442687    A2''        B2 (3)
  169   266           2.3837712249          64.8657127387     E''        B2 (3)
  170   336           2.3837712249          64.8657127392     E''        A2 (4)
  171   175           2.3880862484          64.9831304984    A2'         B1 (2)
  172    67           2.3888511388          65.0039442225    A1'         A1 (1)
  173    68           2.4123895615          65.6444572677     E'         A1 (1)
  174   176           2.4123895617          65.6444572728     E'         B1 (2)
  175   267           2.4353396127          66.2689599109    A2''        B2 (3)
  176   268           2.4915065151          67.7973390264     E''        B2 (3)
  177   337           2.4915065151          67.7973390269     E''        A2 (4)
  178    69           2.5144485869          68.4216245387     E'         A1 (1)
  179   177           2.5144485870          68.4216245399     E'         B1 (2)
  180    70           2.5212981494          68.6080106093    A1'         A1 (1)
  181    71           2.5336456481          68.9440031311     E'         A1 (1)
  182   178           2.5336456482          68.9440031329     E'         B1 (2)
  183   269           2.5373532178          69.0448912294    A2''        B2 (3)
  184    72           2.5891929590          70.4555223033     E'         A1 (1)
  185   179           2.5891929592          70.4555223099     E'         B1 (2)
  186    73           2.6323693367          71.6304112714    A1'         A1 (1)
  187   270           2.7255883105          74.1670285087     E''        B2 (3)
  188   338           2.7255883106          74.1670285091     E''        A2 (4)
  189   180           2.7525460397          74.9005856136    A2'         B1 (2)
  190   271           2.7571051237          75.0246445941    A2''        B2 (3)
  191    74           2.7920014526          75.9742219800    A1'         A1 (1)
  192    75           2.7981874323          76.1425510461     E'         A1 (1)
  193   181           2.7981874330          76.1425510639     E'         B1 (2)
  194   339           2.8556666623          77.7066404115    A1''        A2 (4)
  195   182           2.8572860205          77.7507053861    A2'         B1 (2)
  196    76           2.9047846371          79.0432084549     E'         A1 (1)
  197   183           2.9047846373          79.0432084605     E'         B1 (2)
  198   272           2.9140550718          79.2954698084    A2''        B2 (3)
  199    77           2.9174290304          79.3872798899    A1'         A1 (1)
  200   273           2.9188851227          79.4269021750     E''        B2 (3)
  201   340           2.9188851228          79.4269021761     E''        A2 (4)
  202   184           2.9319499822          79.7824150759    A2'         B1 (2)
  203   274           2.9776113842          81.0249249910    A2''        B2 (3)
  204    78           2.9830558494          81.1730764206     E'         A1 (1)
  205   185           2.9830558495          81.1730764235     E'         B1 (2)
  206    79           3.0714298779          83.5778559927     E'         A1 (1)
  207   186           3.0714298780          83.5778559966     E'         B1 (2)
  208   341           3.0926149585          84.1543313452    A1''        A2 (4)
  209   275           3.1101513559          84.6315209784     E''        B2 (3)
  210   342           3.1101513559          84.6315209785     E''        A2 (4)
  211    80           3.1607594118          86.0086361884     E'         A1 (1)
  212   187           3.1607594118          86.0086361892     E'         B1 (2)
  213   343           3.1680129086          86.2060138726     E''        A2 (4)
  214   276           3.1680129086          86.2060138732     E''        B2 (3)
  215   277           3.1800660450          86.5339963866    A2''        B2 (3)
  216    81           3.2055113287          87.2263977594    A1'         A1 (1)
  217   344           3.2524038724          88.5024087437    A1''        A2 (4)
  218   278           3.3100831021          90.0719403767     E''        B2 (3)
  219   345           3.3100831021          90.0719403767     E''        A2 (4)
  220    82           3.3402937653          90.8940143153     E'         A1 (1)
  221   188           3.3402937653          90.8940143170     E'         B1 (2)
  222    83           3.3413364715          90.9223877941    A1'         A1 (1)
  223   346           3.3575459991          91.3634714652     E''        A2 (4)
  224   279           3.3575459992          91.3634714662     E''        B2 (3)
  225    84           3.3640811327          91.5413014914     E'         A1 (1)
  226   189           3.3640811328          91.5413014921     E'         B1 (2)
  227   280           3.3804844248          91.9876577601     E''        B2 (3)
  228   347           3.3804844248          91.9876577601     E''        A2 (4)
  229    85           3.3857701607          92.1314899467     E'         A1 (1)
  230   190           3.3857701617          92.1314899733     E'         B1 (2)
  231    86           3.4422546702          93.6685115904    A1'         A1 (1)
  232   191           3.4431546372          93.6930009376    A2'         B1 (2)
  233   281           3.4751803848          94.5644658348    A2''        B2 (3)
  234    87           3.4931941651          95.0546457183    A1'         A1 (1)
  235   282           3.5181211720          95.7329440592     E''        B2 (3)
  236   348           3.5181211720          95.7329440595     E''        A2 (4)
  237    88           3.5874478204          97.6194180684     E'         A1 (1)
  238   192           3.5874478204          97.6194180691     E'         B1 (2)
  239    89           3.7800752263         102.8610762632     E'         A1 (1)
  240   193           3.7800752281         102.8610763124     E'         B1 (2)
  241   283           3.7949256572         103.2651770333    A2''        B2 (3)
  242    90           3.8235748625         104.0447615434    A1'         A1 (1)
  243    91           3.8448501993         104.6236928896     E'         A1 (1)
  244   194           3.8448502001         104.6236929117     E'         B1 (2)
  245   284           3.8462422297         104.6615719621     E''        B2 (3)
  246   349           3.8462422297         104.6615719624     E''        A2 (4)
  247   285           3.8927356826         105.9267231352    A2''        B2 (3)
  248   195           3.9687259378         107.9945231039     E'         B1 (2)
  249    92           3.9687259378         107.9945231039     E'         A1 (1)
  250   196           4.0228569652         109.4675032446    A2'         B1 (2)
  251    93           4.0406130337         109.9506704318     E'         A1 (1)
  252   197           4.0406130338         109.9506704325     E'         B1 (2)
  253   286           4.0606496319         110.4958939854     E''        B2 (3)
  254   350           4.0606496319         110.4958939861     E''        A2 (4)
  255   287           4.0767770491         110.9347433203    A2''        B2 (3)
  256    94           4.0958206983         111.4529473602    A1'         A1 (1)
  257    95           4.2317701994         115.1523213571    A1'         A1 (1)
  258   288           4.6263788048         125.8901674121     E''        B2 (3)
  259   351           4.6263788049         125.8901674127     E''        A2 (4)
  260   198           4.6309880514         126.0155913862     E'         B1 (2)
  261    96           4.6309880514         126.0155913867     E'         A1 (1)
  262    97           4.6579103766         126.7481850995     E'         A1 (1)
  263   199           4.6579103766         126.7481851010     E'         B1 (2)
  264   289           4.6591548044         126.7820477027    A2''        B2 (3)
  265   290           4.6695388040         127.0646106962     E''        B2 (3)
  266   352           4.6695388040         127.0646106970     E''        A2 (4)
  267   200           4.6784303169         127.3065610636    A2'         B1 (2)
  268    98           4.7524313054         129.3202303334    A1'         A1 (1)
  269    99           4.9118838087         133.6591535343    A1'         A1 (1)
  270   291           4.9220976178         133.9370854089    A2''        B2 (3)
  271   100           4.9505657899         134.7117437547     E'         A1 (1)
  272   201           4.9505657906         134.7117437740     E'         B1 (2)
  273   101           5.0674543127         137.8924421656     E'         A1 (1)
[...]
         1                G              0.00011239
         1                G              0.00012121
         1                G              0.00008154
         1                G              0.00003281
         1                G              0.00007317
         1                G              0.00010541
         1                G              0.00007787
         1                G              0.00003361
         2                S              1.99752676
         6                S              1.99752676
         2                S              0.00406920
         6                S              0.00406920
         2                S              1.56611546
         6                S              1.56611546
         2                S             -0.26595394
         6                S             -0.26595394
         2                P             -0.01570361
         6                P             -0.01570361
         2                P              0.78428241
         6                P              0.78428241
         2                P             -0.10779584
         6                P             -0.10779584
         2                P             -0.10844110
         6                P             -0.10844110
         2                P              1.16020587
         6                P              1.16020587
         2                P             -0.07171247
         6                P             -0.07171247
         2                P             -0.01570361
         6                P             -0.01570361
         2                P              0.78428241
         6                P              0.78428241
         2                P             -0.10779584
         6                P             -0.10779584
         2                D              0.00352906
         6                D              0.00352906
         2                D              0.00468530
         6                D              0.00468530
         2                D              0.01485502
         6                D              0.01485502
         2                D              0.05680844
         6                D              0.05680844
         2                D              0.00151451
         6                D              0.00151451
         2                D              0.00529894
         6                D              0.00529894
         2                D              0.01108724
         6                D              0.01108724
         2                D              0.00814333
         6                D              0.00814333
         2                D              0.01485502
         6                D              0.01485502
         2                D              0.05680844
         6                D              0.05680844
         2                D              0.00352906
         6                D              0.00352906
         2                D              0.00468530
         6                D              0.00468530
         2                F              0.00102633
         6                F              0.00102633
         2                F              0.00212352
         6                F              0.00212352
         2                F              0.00051664
         6                F              0.00051664
         2                F              0.00514602
         6                F              0.00514602
         2                F              0.00091377
         6                F              0.00091377
         2                F              0.00050597
         6                F              0.00050597
         2                F              0.00222218
         6                F              0.00222218
         2                F              0.00514602
         6                F              0.00514602
         2                F              0.00212352
         6                F              0.00212352
         2                F              0.00102988
         6                F              0.00102988
         3                S              1.99763531
         5                S              1.99763531
         3                S              0.00378102
         5                S              0.00378102
         3                S              1.57638121
         5                S              1.57638121
         3                S             -0.25609212
         5                S             -0.25609212
         3                P             -0.08818206
         5                P             -0.08818206
         3                P              1.07473518
         5                P              1.07473518
         3                P             -0.08443979
         5                P             -0.08443979
         3                P             -0.01489042
         5                P             -0.01489042
         3                P              0.74984730
         5                P              0.74984730
         3                P             -0.10025372
         5                P             -0.10025372
         3                P             -0.04091458
         5                P             -0.04091458
         3                P              0.90272267
         5                P              0.90272267
         3                P             -0.10167620
         5                P             -0.10167620
         3                D              0.01039600
         5                D              0.01039600
         3                D              0.02346918
         5                D              0.02346918
         3                D              0.01111239
         5                D              0.01111239
         3                D              0.04141380
         5                D              0.04141380
         3                D              0.01425781
         5                D              0.01425781
         3                D              0.02159440
         5                D              0.02159440
         3                D              0.00365751
         5                D              0.00365751
         3                D              0.00508649
         5                D              0.00508649
         3                D              0.00471635
         5                D              0.00471635
         3                D              0.01667407
         5                D              0.01667407
         3                D              0.00632914
         5                D              0.00632914
         3                D              0.02082282
         5                D              0.02082282
         3                F              0.00204261
         5                F              0.00204261
         3                F              0.00261105
         5                F              0.00261105
         3                F              0.00343347
         5                F              0.00343347
         3                F              0.00162571
         5                F              0.00162571
         3                F              0.00331221
         5                F              0.00331221
         3                F              0.00431004
         5                F              0.00431004
         3                F              0.00092293
         5                F              0.00092293
         3                F              0.00082905
         5                F              0.00082905
         3                F              0.00042263
         5                F              0.00042263
         3                F              0.00068956
         5                F              0.00068956
         4                S              1.99763531
         4                S              0.00378102
         4                S              1.57638121
         4                S             -0.25609212
         4                P             -0.01728083
         4                P              0.81671642
         4                P             -0.11029441
         4                P             -0.01489042
         4                P              0.74984730
         4                P             -0.10025372
         4                P             -0.11181580
         4                P              1.16074144
         4                P             -0.07582158
         4                D              0.00381678
         4                D              0.00438388
         4                D              0.00151833
         4                D              0.00430420
         4                D              0.01521567
         4                D              0.05182594
         4                D              0.00365751
         4                D              0.00508649
         4                D              0.01431041
         4                D              0.05378367
         4                D              0.01195050
         4                D              0.00967658
         4                F              0.00106486
         4                F              0.00057561
         4                F              0.00217368
         4                F              0.00043072
         4                F              0.00081782
         4                F              0.00498904
         4                F              0.00092293
         4                F              0.00202404
         4                F              0.00495246
         4                F              0.00224810
         7                S              1.99645603
         8                S              1.99645603
         7                S              0.00446104
         8                S              0.00446104
         7                S              1.84124525
         8                S              1.84124525
         7                S             -0.08770321
         8                S             -0.08770321
         7                P             -0.01210836
         8                P             -0.01210836
         7                P              1.48652921
         8                P              1.48652921
         7                P             -0.04178024
         8                P             -0.04178024
         7                P             -0.06169952
         8                P             -0.06169952
         7                P              1.55873325
         8                P              1.55873325
         7                P             -0.10927490
         8                P             -0.10927490
         7                P             -0.01210836
         8                P             -0.01210836
         7                P              1.48652921
         8                P              1.48652921
         7                P             -0.04178024
         8                P             -0.04178024
         7                D              0.00160837
         8                D              0.00160837
         7                D              0.00415496
         8                D              0.00415496
         7                D              0.00315837
         8                D              0.00315837
         7                D              0.01405862
         8                D              0.01405862
         7                D              0.00169955
         8                D              0.00169955
         7                D              0.00401075
         8                D              0.00401075
         7                D              0.00303438
         8                D              0.00303438
         7                D              0.00859836
         8                D              0.00859836
         7                D              0.00315837
         8                D              0.00315837
         7                D              0.01405862
         8                D              0.01405862
         7                D              0.00160837
         8                D              0.00160837
         7                D              0.00415496
         8                D              0.00415496
         7                F              0.00027089
         8                F              0.00027089
         7                F              0.00061362
         8                F              0.00061362
         7                F              0.00032571
         8                F              0.00032571
         7                F              0.00097392
         8                F              0.00097392
         7                F              0.00043570
         8                F              0.00043570
         7                F              0.00032571
         8                F              0.00032571
         7                F              0.00052770
         8                F              0.00052770
         7                F              0.00097392
         8                F              0.00097392
         7                F              0.00061362
         8                F              0.00061362
         7                F              0.00027089
         8                F              0.00027089
         9                S              1.99645251
        11                S              1.99645251
         9                S              0.00451662
        11                S              0.00451662
         9                S              1.83856586
        11                S              1.83856586
         9                S             -0.08906307
        11                S             -0.08906307
         9                P             -0.05080541
        11                P             -0.05080541
         9                P              1.54698362
        11                P              1.54698362
         9                P             -0.09437240
        11                P             -0.09437240
         9                P             -0.01171911
        11                P             -0.01171911
         9                P              1.46535902
        11                P              1.46535902
         9                P             -0.03966124
        11                P             -0.03966124
         9                P             -0.02510624
        11                P             -0.02510624
         9                P              1.52055231
        11                P              1.52055231
         9                P             -0.05455968
        11                P             -0.05455968
         9                D              0.00239776
        11                D              0.00239776
         9                D              0.00853049
        11                D              0.00853049
         9                D              0.00276175
        11                D              0.00276175
         9                D              0.01151619
        11                D              0.01151619
         9                D              0.00364995
        11                D              0.00364995
         9                D              0.01128336
        11                D              0.01128336
         9                D              0.00159286
        11                D              0.00159286
         9                D              0.00410557
        11                D              0.00410557
         9                D              0.00205327
        11                D              0.00205327
         9                D              0.00652824
        11                D              0.00652824
         9                D              0.00169839
        11                D              0.00169839
         9                D              0.00639043
        11                D              0.00639043
         9                F              0.00042724
        11                F              0.00042724
         9                F              0.00063253
        11                F              0.00063253
         9                F              0.00086018
        11                F              0.00086018
         9                F              0.00053504
        11                F              0.00053504
         9                F              0.00078327
        11                F              0.00078327
         9                F              0.00086360
        11                F              0.00086360
         9                F              0.00026427
        11                F              0.00026427
         9                F              0.00039214
        11                F              0.00039214
         9                F              0.00031571
        11                F              0.00031571
         9                F              0.00024159
        11                F              0.00024159
        10                S              1.99645251
        10                S              0.00451662
        10                S              1.83856586
        10                S             -0.08906307
        10                P             -0.01225666
        10                P              1.50733665
        10                P             -0.03465331
        10                P             -0.01171911
        10                P              1.46535902
        10                P             -0.03966124
        10                P             -0.06365500
        10                P              1.56019928
        10                P             -0.11427877
        10                D              0.00161138
        10                D              0.00413182
        10                D              0.00169902
        10                D              0.00403426
        10                D              0.00312461
        10                D              0.01366053
        10                D              0.00159286
        10                D              0.00410557
        10                D              0.00311599
        10                D              0.01401017
        10                D              0.00301011
        10                D              0.00841193
        10                F              0.00027410
        10                F              0.00033088
        10                F              0.00062497
        10                F              0.00032069
        10                F              0.00043612
        10                F              0.00096314
        10                F              0.00026427
        10                F              0.00060649
        10                F              0.00096451
        10                F              0.00053039
 -------------------------------------------------------
  Population analysis by atoms (atomic charges).
 -------------------------------------------------------
     Z-matrix
      Center          Function          Population
 -------------------------------------------------------
         1                              26.54782368
         2                               5.80992921
         6                               5.80992921
         3                               5.81838301
         5                               5.81838301
         4                               5.81838301
         7                               8.07613452
         8                               8.07613452
         9                               8.07496661
        11                               8.07496661
        10                               8.07496661
 -------------------------------------------------------
 @CHECKOUT-I, Total execution time (CPU/WALL):       15.91/       0.79 seconds.
--executable xprops finished with status     0 in        0.81 seconds (walltime).
  The final electronic energy is     -1828.635315546675429 a.u. 
  This computation required                       238578.70 seconds (walltime).
Attempting to clean /scratch/jearias... save is False. TIME: Sun 31 Aug 2025 05:43:40 PM PDT
Total of 238579 seconds elapsed for this process.
