[Molden Format]
[N_ATOMS]
                     5
[ATOMS] (AU)
H1          1      1           0.00000000      0.00000000      0.00000000
C1          2      6           0.00000000      0.00000000      2.07302956
O1          3      8           2.36933580      0.00000000      2.98253236
H2          4      1           2.21883002      0.00000000      4.81316966
O2          5      8          -1.88089831      0.00000000      3.34649345
[5D]
[CHARGE] (MULLIKEN)
  5.763909449925952E-002
  0.415617069109049     
 -0.298008314514922     
  0.191372986110857     
 -0.366620835205442     
[GTO] (AU)
   1
   s   4
  0.130100000E+02  0.196849900E-01
  0.196200000E+01  0.137976930E+00
  0.444600000E+00  0.478147757E+00
  0.122000000E+00  0.501239745E+00
   s   1
  0.122000000E+00  0.100000000E+01
   p   1
  0.727000000E+00  0.100000000E+01
 
   2
   s   9
  0.666500000E+04  0.692000179E-03
  0.100000000E+04  0.532900138E-02
  0.228000000E+03  0.270770070E-01
  0.647100000E+02  0.101718026E+00
  0.210600000E+02  0.274740071E+00
  0.749500000E+01  0.448564116E+00
  0.279700000E+01  0.285074074E+00
  0.521500000E+00  0.152040039E-01
  0.159600000E+00 -0.319100083E-02
   s   9
  0.666500000E+04 -0.146000064E-03
  0.100000000E+04 -0.115400051E-02
  0.228000000E+03 -0.572500252E-02
  0.647100000E+02 -0.233120103E-01
  0.210600000E+02 -0.639550281E-01
  0.749500000E+01 -0.149981066E+00
  0.279700000E+01 -0.127262056E+00
  0.521500000E+00  0.544529240E+00
  0.159600000E+00  0.580496255E+00
   s   1
  0.159600000E+00  0.100000000E+01
   p   4
  0.943900000E+01  0.381090213E-01
  0.200200000E+01  0.209480117E+00
  0.545600000E+00  0.508557284E+00
  0.151700000E+00  0.468842262E+00
   p   1
  0.151700000E+00  0.100000000E+01
   d   1
  0.550000000E+00  0.100000000E+01
 
   3
   s   9
  0.117200000E+05  0.710000250E-03
  0.175900000E+04  0.547000193E-02
  0.400800000E+03  0.278370098E-01
  0.113700000E+03  0.104800037E+00
  0.370300000E+02  0.283062100E+00
  0.132700000E+02  0.448719158E+00
  0.502500000E+01  0.270952096E+00
  0.101300000E+01  0.154580054E-01
  0.302300000E+00 -0.258500091E-02
   s   9
  0.117200000E+05 -0.160000015E-03
  0.175900000E+04 -0.126300012E-02
  0.400800000E+03 -0.626700060E-02
  0.113700000E+03 -0.257160025E-01
  0.370300000E+02 -0.709240068E-01
  0.132700000E+02 -0.165411016E+00
  0.502500000E+01 -0.116955011E+00
  0.101300000E+01  0.557368054E+00
  0.302300000E+00  0.572759055E+00
   s   1
  0.302300000E+00  0.100000000E+01
   p   4
  0.177000000E+02  0.430179924E-01
  0.385400000E+01  0.228912960E+00
  0.104600000E+01  0.508727910E+00
  0.275300000E+00  0.460530919E+00
   p   1
  0.275300000E+00  0.100000000E+01
   d   1
  0.118500000E+01  0.100000000E+01
 
   4
   s   4
  0.130100000E+02  0.196849900E-01
  0.196200000E+01  0.137976930E+00
  0.444600000E+00  0.478147757E+00
  0.122000000E+00  0.501239745E+00
   s   1
  0.122000000E+00  0.100000000E+01
   p   1
  0.727000000E+00  0.100000000E+01
 
   5
   s   9
  0.117200000E+05  0.710000250E-03
  0.175900000E+04  0.547000193E-02
  0.400800000E+03  0.278370098E-01
  0.113700000E+03  0.104800037E+00
  0.370300000E+02  0.283062100E+00
  0.132700000E+02  0.448719158E+00
  0.502500000E+01  0.270952096E+00
  0.101300000E+01  0.154580054E-01
  0.302300000E+00 -0.258500091E-02
   s   9
  0.117200000E+05 -0.160000015E-03
  0.175900000E+04 -0.126300012E-02
  0.400800000E+03 -0.626700060E-02
  0.113700000E+03 -0.257160025E-01
  0.370300000E+02 -0.709240068E-01
  0.132700000E+02 -0.165411016E+00
  0.502500000E+01 -0.116955011E+00
  0.101300000E+01  0.557368054E+00
  0.302300000E+00  0.572759055E+00
   s   1
  0.302300000E+00  0.100000000E+01
   p   4
  0.177000000E+02  0.430179924E-01
  0.385400000E+01  0.228912960E+00
  0.104600000E+01  0.508727910E+00
  0.275300000E+00  0.460530919E+00
   p   1
  0.275300000E+00  0.100000000E+01
   d   1
  0.118500000E+01  0.100000000E+01
 
[MO]
Sym=     1a  
Ene=   -20.6240
Spin= Alpha
Occup=    1.00000
   1        -0.00058271
   2         0.00040027
   3        -0.00019071
   4        -0.00000000
   5        -0.00018138
   6         0.00013848
   7         0.00049083
   8         0.00197473
   9         0.00032129
  10        -0.00000000
  11         0.00008801
  12         0.00111713
  13         0.00000000
  14         0.00084992
  15         0.00035158
  16        -0.00022802
  17        -0.00000000
  18        -0.00007168
  19         0.00000000
  20         1.00071532
  21         0.00348737
  22        -0.00456415
  23        -0.00198633
  24         0.00000000
  25         0.00116945
  26         0.00252091
  27         0.00000000
  28        -0.00042209
  29         0.00011867
  30        -0.00006091
  31         0.00000000
  32        -0.00006912
  33        -0.00000000
  34         0.00013508
  35        -0.00008635
  36        -0.00012206
  37         0.00000000
  38         0.00059731
  39        -0.00030816
  40         0.00000960
  41        -0.00044230
  42        -0.00011247
  43        -0.00000000
  44         0.00005586
  45        -0.00037665
  46        -0.00000000
  47        -0.00033264
  48         0.00013091
  49        -0.00001456
  50         0.00000000
  51        -0.00006730
  52        -0.00000000
Sym=     1a  
Ene=   -20.6240
Spin= Beta
Occup=    1.00000
   1        -0.00058271
   2         0.00040027
   3        -0.00019071
   4        -0.00000000
   5        -0.00018138
   6         0.00013848
   7         0.00049083
   8         0.00197473
   9         0.00032129
  10        -0.00000000
  11         0.00008801
  12         0.00111713
  13         0.00000000
  14         0.00084992
  15         0.00035158
  16        -0.00022802
  17        -0.00000000
  18        -0.00007168
  19         0.00000000
  20         1.00071532
  21         0.00348737
  22        -0.00456415
  23        -0.00198633
  24         0.00000000
  25         0.00116945
  26         0.00252091
  27         0.00000000
  28        -0.00042209
  29         0.00011867
  30        -0.00006091
  31         0.00000000
  32        -0.00006912
  33        -0.00000000
  34         0.00013508
  35        -0.00008635
  36        -0.00012206
  37         0.00000000
  38         0.00059731
  39        -0.00030816
  40         0.00000960
  41        -0.00044230
  42        -0.00011247
  43        -0.00000000
  44         0.00005586
  45        -0.00037665
  46        -0.00000000
  47        -0.00033264
  48         0.00013091
  49        -0.00001456
  50         0.00000000
  51        -0.00006730
  52        -0.00000000
Sym=     2a  
Ene=   -20.5630
Spin= Alpha
Occup=    1.00000
   1        -0.00022647
   2         0.00043839
   3         0.00034041
   4         0.00000000
   5        -0.00012493
   6         0.00019878
   7         0.00044883
   8         0.00193622
   9         0.00011321
  10         0.00000000
  11        -0.00015796
  12        -0.00137521
  13        -0.00000000
  14         0.00150552
  15         0.00017225
  16         0.00068906
  17         0.00000000
  18        -0.00027685
  19        -0.00000000
  20         0.00034666
  21         0.00004073
  22        -0.00046331
  23         0.00010201
  24         0.00000000
  25         0.00003945
  26         0.00029789
  27         0.00000000
  28        -0.00068191
  29         0.00006685
  30         0.00008677
  31         0.00000000
  32        -0.00007647
  33        -0.00000000
  34         0.00050323
  35        -0.00027951
  36         0.00006780
  37         0.00000000
  38        -0.00009009
  39         1.00076827
  40         0.00354884
  41        -0.00515160
  42         0.00225842
  43         0.00000000
  44        -0.00140788
  45        -0.00244452
  46        -0.00000000
  47         0.00146173
  48         0.00008115
  49        -0.00008870
  50        -0.00000000
  51         0.00019430
  52         0.00000000
Sym=     2a  
Ene=   -20.5630
Spin= Beta
Occup=    1.00000
   1        -0.00022647
   2         0.00043839
   3         0.00034041
   4         0.00000000
   5        -0.00012493
   6         0.00019878
   7         0.00044883
   8         0.00193622
   9         0.00011321
  10         0.00000000
  11        -0.00015796
  12        -0.00137521
  13        -0.00000000
  14         0.00150552
  15         0.00017225
  16         0.00068906
  17         0.00000000
  18        -0.00027685
  19        -0.00000000
  20         0.00034666
  21         0.00004073
  22        -0.00046331
  23         0.00010201
  24         0.00000000
  25         0.00003945
  26         0.00029789
  27         0.00000000
  28        -0.00068191
  29         0.00006685
  30         0.00008677
  31         0.00000000
  32        -0.00007647
  33        -0.00000000
  34         0.00050323
  35        -0.00027951
  36         0.00006780
  37         0.00000000
  38        -0.00009009
  39         1.00076827
  40         0.00354884
  41        -0.00515160
  42         0.00225842
  43         0.00000000
  44        -0.00140788
  45        -0.00244452
  46        -0.00000000
  47         0.00146173
  48         0.00008115
  49        -0.00008870
  50        -0.00000000
  51         0.00019430
  52         0.00000000
Sym=     3a  
Ene=   -11.3980
Spin= Alpha
Occup=    1.00000
   1        -0.00021334
   2         0.00175911
   3        -0.00010944
   4        -0.00000000
   5        -0.00028065
   6         1.00096004
   7         0.00610178
   8        -0.00298526
   9         0.00082060
  10        -0.00000000
  11         0.00099644
  12        -0.00043767
  13         0.00000000
  14         0.00122017
  15         0.00025485
  16        -0.00025308
  17        -0.00000000
  18         0.00102179
  19         0.00000000
  20         0.00021715
  21         0.00137468
  22        -0.00288692
  23        -0.00030994
  24         0.00000000
  25        -0.00011312
  26         0.00165834
  27         0.00000000
  28         0.00000169
  29        -0.00011176
  30        -0.00012758
  31         0.00000000
  32        -0.00027414
  33        -0.00000000
  34         0.00088827
  35        -0.00045402
  36        -0.00015886
  37         0.00000000
  38        -0.00026479
  39        -0.00017179
  40         0.00099999
  41        -0.00213364
  42         0.00057631
  43        -0.00000000
  44        -0.00032796
  45        -0.00132728
  46        -0.00000000
  47         0.00046123
  48        -0.00003432
  49        -0.00026092
  50         0.00000000
  51         0.00006446
  52        -0.00000000
Sym=     3a  
Ene=   -11.3980
Spin= Beta
Occup=    1.00000
   1        -0.00021334
   2         0.00175911
   3        -0.00010944
   4        -0.00000000
   5        -0.00028065
   6         1.00096004
   7         0.00610178
   8        -0.00298526
   9         0.00082060
  10        -0.00000000
  11         0.00099644
  12        -0.00043767
  13         0.00000000
  14         0.00122017
  15         0.00025485
  16        -0.00025308
  17        -0.00000000
  18         0.00102179
  19         0.00000000
  20         0.00021715
  21         0.00137468
  22        -0.00288692
  23        -0.00030994
  24         0.00000000
  25        -0.00011312
  26         0.00165834
  27         0.00000000
  28         0.00000169
  29        -0.00011176
  30        -0.00012758
  31         0.00000000
  32        -0.00027414
  33        -0.00000000
  34         0.00088827
  35        -0.00045402
  36        -0.00015886
  37         0.00000000
  38        -0.00026479
  39        -0.00017179
  40         0.00099999
  41        -0.00213364
  42         0.00057631
  43        -0.00000000
  44        -0.00032796
  45        -0.00132728
  46        -0.00000000
  47         0.00046123
  48        -0.00003432
  49        -0.00026092
  50         0.00000000
  51         0.00006446
  52        -0.00000000
Sym=     4a  
Ene=    -1.4731
Spin= Alpha
Occup=    1.00000
   1         0.07415015
   2        -0.03950052
   3         0.00044029
   4         0.00000000
   5         0.01130354
   6        -0.01253624
   7         0.45139989
   8        -0.19569087
   9         0.02116736
  10        -0.00000000
  11         0.14976747
  12        -0.01276195
  13        -0.00000000
  14        -0.06283159
  15        -0.01226366
  16         0.00105266
  17        -0.00000000
  18         0.02721414
  19         0.00000000
  20        -0.00777408
  21         0.66210095
  22        -0.06086059
  23        -0.12347923
  24         0.00000000
  25         0.02432831
  26         0.02435623
  27         0.00000000
  28        -0.02447954
  29        -0.00219435
  30         0.00272546
  31         0.00000000
  32         0.00870558
  33        -0.00000000
  34         0.20873350
  35        -0.10504045
  36        -0.00002268
  37         0.00000000
  38        -0.02861396
  39        -0.00593187
  40         0.43048990
  41        -0.04661462
  42         0.11569589
  43        -0.00000000
  44        -0.05760233
  45        -0.02722254
  46        -0.00000000
  47         0.01941215
  48        -0.00339777
  49        -0.00766376
  50         0.00000000
  51         0.00810058
  52        -0.00000000
Sym=     4a  
Ene=    -1.4731
Spin= Beta
Occup=    1.00000
   1         0.07415015
   2        -0.03950052
   3         0.00044029
   4         0.00000000
   5         0.01130354
   6        -0.01253624
   7         0.45139989
   8        -0.19569087
   9         0.02116736
  10        -0.00000000
  11         0.14976747
  12        -0.01276195
  13        -0.00000000
  14        -0.06283159
  15        -0.01226366
  16         0.00105266
  17        -0.00000000
  18         0.02721414
  19         0.00000000
  20        -0.00777408
  21         0.66210095
  22        -0.06086059
  23        -0.12347923
  24         0.00000000
  25         0.02432831
  26         0.02435623
  27         0.00000000
  28        -0.02447954
  29        -0.00219435
  30         0.00272546
  31         0.00000000
  32         0.00870558
  33        -0.00000000
  34         0.20873350
  35        -0.10504045
  36        -0.00002268
  37         0.00000000
  38        -0.02861396
  39        -0.00593187
  40         0.43048990
  41        -0.04661462
  42         0.11569589
  43        -0.00000000
  44        -0.05760233
  45        -0.02722254
  46        -0.00000000
  47         0.01941215
  48        -0.00339777
  49        -0.00766376
  50         0.00000000
  51         0.00810058
  52        -0.00000000
Sym=     5a  
Ene=    -1.3722
Spin= Alpha
Occup=    1.00000
   1         0.01769226
   2        -0.01067951
   3        -0.00628836
   4         0.00000000
   5         0.00335841
   6        -0.00551506
   7         0.19301011
   8        -0.07199506
   9        -0.33141998
  10         0.00000000
  11         0.09500648
  12         0.13674963
  13        -0.00000000
  14        -0.04195372
  15         0.00445281
  16        -0.04566976
  17         0.00000000
  18         0.00427917
  19        -0.00000000
  20         0.00447171
  21        -0.53533791
  22         0.04759682
  23         0.04143955
  24         0.00000000
  25        -0.02580981
  26        -0.01618677
  27         0.00000000
  28         0.02591904
  29        -0.00284172
  30        -0.00277639
  31         0.00000000
  32        -0.00106626
  33        -0.00000000
  34        -0.18278125
  35         0.08964642
  36        -0.00166603
  37         0.00000000
  38         0.02367108
  39        -0.01065679
  40         0.67717362
  41        -0.05901005
  42         0.11983067
  43         0.00000000
  44        -0.09698584
  45        -0.03815718
  46        -0.00000000
  47         0.02784802
  48         0.00187496
  49        -0.01080346
  50        -0.00000000
  51         0.00671275
  52         0.00000000
Sym=     5a  
Ene=    -1.3722
Spin= Beta
Occup=    1.00000
   1         0.01769226
   2        -0.01067951
   3        -0.00628836
   4         0.00000000
   5         0.00335841
   6        -0.00551506
   7         0.19301011
   8        -0.07199506
   9        -0.33141998
  10         0.00000000
  11         0.09500648
  12         0.13674963
  13        -0.00000000
  14        -0.04195372
  15         0.00445281
  16        -0.04566976
  17         0.00000000
  18         0.00427917
  19        -0.00000000
  20         0.00447171
  21        -0.53533791
  22         0.04759682
  23         0.04143955
  24         0.00000000
  25        -0.02580981
  26        -0.01618677
  27         0.00000000
  28         0.02591904
  29        -0.00284172
  30        -0.00277639
  31         0.00000000
  32        -0.00106626
  33        -0.00000000
  34        -0.18278125
  35         0.08964642
  36        -0.00166603
  37         0.00000000
  38         0.02367108
  39        -0.01065679
  40         0.67717362
  41        -0.05901005
  42         0.11983067
  43         0.00000000
  44        -0.09698584
  45        -0.03815718
  46        -0.00000000
  47         0.02784802
  48         0.00187496
  49        -0.01080346
  50        -0.00000000
  51         0.00671275
  52         0.00000000
Sym=     6a  
Ene=    -0.8887
Spin= Alpha
Occup=    1.00000
   1        -0.39689704
   2         0.17625724
   3        -0.00123654
   4        -0.00000000
   5        -0.02664062
   6        -0.00157292
   7        -0.59390926
   8         0.17726548
   9        -0.19264367
  10        -0.00000000
  11         0.21405799
  12         0.06075331
  13         0.00000000
  14        -0.04263911
  15         0.00944851
  16        -0.00421237
  17        -0.00000000
  18        -0.01431871
  19         0.00000000
  20         0.00119267
  21         0.15800016
  22        -0.01957969
  23         0.25979451
  24        -0.00000000
  25         0.41527012
  26        -0.01687341
  27         0.00000000
  28        -0.07819757
  29         0.01175437
  30        -0.01263727
  31        -0.00000000
  32        -0.01001629
  33         0.00000000
  34         0.40581587
  35        -0.16532650
  36         0.00564120
  37        -0.00000000
  38        -0.03673164
  39        -0.00024240
  40         0.24355879
  41         0.01743057
  42        -0.07269870
  43        -0.00000000
  44         0.10940876
  45        -0.00151090
  46        -0.00000000
  47        -0.00873388
  48         0.00002471
  49         0.00466753
  50         0.00000000
  51        -0.00117733
  52        -0.00000000
Sym=     6a  
Ene=    -0.8887
Spin= Beta
Occup=    1.00000
   1        -0.39689704
   2         0.17625724
   3        -0.00123654
   4        -0.00000000
   5        -0.02664062
   6        -0.00157292
   7        -0.59390926
   8         0.17726548
   9        -0.19264367
  10        -0.00000000
  11         0.21405799
  12         0.06075331
  13         0.00000000
  14        -0.04263911
  15         0.00944851
  16        -0.00421237
  17        -0.00000000
  18        -0.01431871
  19         0.00000000
  20         0.00119267
  21         0.15800016
  22        -0.01957969
  23         0.25979451
  24        -0.00000000
  25         0.41527012
  26        -0.01687341
  27         0.00000000
  28        -0.07819757
  29         0.01175437
  30        -0.01263727
  31        -0.00000000
  32        -0.01001629
  33         0.00000000
  34         0.40581587
  35        -0.16532650
  36         0.00564120
  37        -0.00000000
  38        -0.03673164
  39        -0.00024240
  40         0.24355879
  41         0.01743057
  42        -0.07269870
  43        -0.00000000
  44         0.10940876
  45        -0.00151090
  46        -0.00000000
  47        -0.00873388
  48         0.00002471
  49         0.00466753
  50         0.00000000
  51        -0.00117733
  52        -0.00000000
Sym=     7a  
Ene=    -0.7189
Spin= Alpha
Occup=    1.00000
   1        -0.38223359
   2         0.13319575
   3         0.00213090
   4         0.00000000
   5        -0.01953446
   6         0.00612341
   7         0.04887550
   8        -0.06019590
   9         0.27760396
  10         0.00000000
  11         0.50234167
  12        -0.10024107
  13        -0.00000000
  14        -0.13570693
  15         0.00504939
  16         0.01464115
  17         0.00000000
  18         0.00887043
  19         0.00000000
  20         0.00018332
  21        -0.16616335
  22        -0.04315758
  23        -0.53046890
  24         0.00000000
  25        -0.04688240
  26         0.02109102
  27         0.00000000
  28         0.01738695
  29        -0.01297996
  30        -0.00211196
  31         0.00000000
  32         0.01570706
  33        -0.00000000
  34        -0.09743908
  35         0.01740422
  36        -0.01827685
  37         0.00000000
  38         0.00566132
  39         0.00174811
  40        -0.04364006
  41        -0.02310117
  42         0.26828193
  43        -0.00000000
  44         0.26410650
  45        -0.01269472
  46        -0.00000000
  47        -0.00794998
  48        -0.01415821
  49         0.00427946
  50        -0.00000000
  51         0.00954142
  52        -0.00000000
Sym=     7a  
Ene=    -0.7189
Spin= Beta
Occup=    1.00000
   1        -0.38223359
   2         0.13319575
   3         0.00213090
   4         0.00000000
   5        -0.01953446
   6         0.00612341
   7         0.04887550
   8        -0.06019590
   9         0.27760396
  10         0.00000000
  11         0.50234167
  12        -0.10024107
  13        -0.00000000
  14        -0.13570693
  15         0.00504939
  16         0.01464115
  17         0.00000000
  18         0.00887043
  19         0.00000000
  20         0.00018332
  21        -0.16616335
  22        -0.04315758
  23        -0.53046890
  24         0.00000000
  25        -0.04688240
  26         0.02109102
  27         0.00000000
  28         0.01738695
  29        -0.01297996
  30        -0.00211196
  31         0.00000000
  32         0.01570706
  33        -0.00000000
  34        -0.09743908
  35         0.01740422
  36        -0.01827685
  37         0.00000000
  38         0.00566132
  39         0.00174811
  40        -0.04364006
  41        -0.02310117
  42         0.26828193
  43        -0.00000000
  44         0.26410650
  45        -0.01269472
  46        -0.00000000
  47        -0.00794998
  48        -0.01415821
  49         0.00427946
  50        -0.00000000
  51         0.00954142
  52        -0.00000000
Sym=     8a  
Ene=    -0.7066
Spin= Alpha
Occup=    1.00000
   1        -0.13481874
   2         0.07064464
   3         0.00334852
   4         0.00000000
   5        -0.00662462
   6        -0.01008687
   7        -0.34975580
   8         0.15640637
   9         0.33928676
  10         0.00000000
  11        -0.06622730
  12        -0.13743440
  13        -0.00000000
  14         0.06901264
  15        -0.01960317
  16         0.00385386
  17         0.00000000
  18         0.01213520
  19        -0.00000000
  20         0.00164842
  21         0.17219157
  22         0.04924467
  23         0.07940406
  24         0.00000000
  25        -0.46658970
  26         0.01811875
  27        -0.00000000
  28         0.03257869
  29        -0.00745186
  30         0.01115776
  31         0.00000000
  32        -0.00185853
  33        -0.00000000
  34        -0.36389628
  35         0.15029122
  36         0.00193435
  37         0.00000000
  38         0.02498850
  39        -0.00032083
  40         0.36675125
  41         0.09429009
  42        -0.42727446
  43         0.00000000
  44         0.33838138
  45         0.01919821
  46        -0.00000000
  47        -0.02035986
  48        -0.00207010
  49         0.01848267
  50        -0.00000000
  51        -0.01041573
  52         0.00000000
Sym=     8a  
Ene=    -0.7066
Spin= Beta
Occup=    1.00000
   1        -0.13481874
   2         0.07064464
   3         0.00334852
   4         0.00000000
   5        -0.00662462
   6        -0.01008687
   7        -0.34975580
   8         0.15640637
   9         0.33928676
  10         0.00000000
  11        -0.06622730
  12        -0.13743440
  13        -0.00000000
  14         0.06901264
  15        -0.01960317
  16         0.00385386
  17         0.00000000
  18         0.01213520
  19        -0.00000000
  20         0.00164842
  21         0.17219157
  22         0.04924467
  23         0.07940406
  24         0.00000000
  25        -0.46658970
  26         0.01811875
  27        -0.00000000
  28         0.03257869
  29        -0.00745186
  30         0.01115776
  31         0.00000000
  32        -0.00185853
  33        -0.00000000
  34        -0.36389628
  35         0.15029122
  36         0.00193435
  37         0.00000000
  38         0.02498850
  39        -0.00032083
  40         0.36675125
  41         0.09429009
  42        -0.42727446
  43         0.00000000
  44         0.33838138
  45         0.01919821
  46        -0.00000000
  47        -0.02035986
  48        -0.00207010
  49         0.01848267
  50        -0.00000000
  51        -0.01041573
  52         0.00000000
Sym=     9a  
Ene=    -0.6305
Spin= Alpha
Occup=    1.00000
   1         0.00000000
   2        -0.00000000
   3         0.00000000
   4         0.00818005
   5         0.00000000
   6         0.00000000
   7        -0.00000000
   8         0.00000000
   9         0.00000000
  10         0.43064175
  11        -0.00000000
  12        -0.00000000
  13        -0.04945343
  14         0.00000000
  15         0.00000000
  16         0.00000000
  17         0.02924976
  18        -0.00000000
  19         0.00689740
  20        -0.00000000
  21        -0.00000000
  22        -0.00000000
  23        -0.00000000
  24         0.67638712
  25         0.00000000
  26        -0.00000000
  27         0.01291790
  28        -0.00000000
  29         0.00000000
  30        -0.00000000
  31         0.00224823
  32         0.00000000
  33        -0.02035869
  34         0.00000000
  35        -0.00000000
  36        -0.00000000
  37         0.02073618
  38        -0.00000000
  39        -0.00000000
  40         0.00000000
  41         0.00000000
  42        -0.00000000
  43         0.37424310
  44         0.00000000
  45         0.00000000
  46        -0.00896920
  47        -0.00000000
  48         0.00000000
  49         0.00000000
  50        -0.01064782
  51        -0.00000000
  52         0.01623621
Sym=     9a  
Ene=    -0.6305
Spin= Beta
Occup=    1.00000
   1         0.00000000
   2        -0.00000000
   3         0.00000000
   4         0.00818005
   5         0.00000000
   6         0.00000000
   7        -0.00000000
   8         0.00000000
   9         0.00000000
  10         0.43064175
  11        -0.00000000
  12        -0.00000000
  13        -0.04945343
  14         0.00000000
  15         0.00000000
  16         0.00000000
  17         0.02924976
  18        -0.00000000
  19         0.00689740
  20        -0.00000000
  21        -0.00000000
  22        -0.00000000
  23        -0.00000000
  24         0.67638712
  25         0.00000000
  26        -0.00000000
  27         0.01291790
  28        -0.00000000
  29         0.00000000
  30        -0.00000000
  31         0.00224823
  32         0.00000000
  33        -0.02035869
  34         0.00000000
  35        -0.00000000
  36        -0.00000000
  37         0.02073618
  38        -0.00000000
  39        -0.00000000
  40         0.00000000
  41         0.00000000
  42        -0.00000000
  43         0.37424310
  44         0.00000000
  45         0.00000000
  46        -0.00896920
  47        -0.00000000
  48         0.00000000
  49         0.00000000
  50        -0.01064782
  51        -0.00000000
  52         0.01623621
Sym=    10a  
Ene=    -0.5971
Spin= Alpha
Occup=    1.00000
   1         0.34680606
   2        -0.09008335
   3         0.01051520
   4        -0.00000000
   5         0.01182297
   6        -0.00476593
   7         0.01021707
   8         0.04055548
   9         0.29622178
  10        -0.00000000
  11        -0.33411269
  12        -0.17933769
  13         0.00000000
  14         0.13084268
  15         0.02342138
  16         0.03824229
  17        -0.00000000
  18        -0.01590090
  19         0.00000000
  20        -0.00079146
  21        -0.22141134
  22        -0.09764716
  23        -0.40430576
  24        -0.00000000
  25         0.43064686
  26        -0.01693497
  27        -0.00000000
  28        -0.03882813
  29         0.00653112
  30        -0.00622908
  31        -0.00000000
  32         0.00688597
  33         0.00000000
  34         0.37354639
  35        -0.13443972
  36        -0.00807603
  37        -0.00000000
  38        -0.02551086
  39         0.00379187
  40         0.13962416
  41         0.04219166
  42        -0.42741293
  43        -0.00000000
  44         0.24773541
  45         0.02166348
  46         0.00000000
  47        -0.00170962
  48         0.00422974
  49         0.01356231
  50         0.00000000
  51        -0.01191951
  52        -0.00000000
Sym=    10a  
Ene=    -0.5971
Spin= Beta
Occup=    1.00000
   1         0.34680606
   2        -0.09008335
   3         0.01051520
   4        -0.00000000
   5         0.01182297
   6        -0.00476593
   7         0.01021707
   8         0.04055548
   9         0.29622178
  10        -0.00000000
  11        -0.33411269
  12        -0.17933769
  13         0.00000000
  14         0.13084268
  15         0.02342138
  16         0.03824229
  17        -0.00000000
  18        -0.01590090
  19         0.00000000
  20        -0.00079146
  21        -0.22141134
  22        -0.09764716
  23        -0.40430576
  24        -0.00000000
  25         0.43064686
  26        -0.01693497
  27        -0.00000000
  28        -0.03882813
  29         0.00653112
  30        -0.00622908
  31        -0.00000000
  32         0.00688597
  33         0.00000000
  34         0.37354639
  35        -0.13443972
  36        -0.00807603
  37        -0.00000000
  38        -0.02551086
  39         0.00379187
  40         0.13962416
  41         0.04219166
  42        -0.42741293
  43        -0.00000000
  44         0.24773541
  45         0.02166348
  46         0.00000000
  47        -0.00170962
  48         0.00422974
  49         0.01356231
  50         0.00000000