[Molden Format]
[N_ATOMS]
                     5
[ATOMS] (AU)
H1          1      1           0.00000000      0.00000000      0.00000000
C1          2      6           0.00000000      0.00000000      2.07302956
O1          3      8           2.36933580      0.00000000      2.98253236
H2          4      1           2.21883002      0.00000000      4.81316966
O2          5      8          -1.88089831      0.00000000      3.34649345
[5D]
[CHARGE] (MULLIKEN)
  0.000000000000000E+000
  0.000000000000000E+000
  0.000000000000000E+000
  0.000000000000000E+000
  0.000000000000000E+000
[GTO] (AU)
   1
   s   4
  0.130100000E+02  0.196849900E-01
  0.196200000E+01  0.137976930E+00
  0.444600000E+00  0.478147757E+00
  0.122000000E+00  0.501239745E+00
   s   1
  0.122000000E+00  0.100000000E+01
   p   1
  0.727000000E+00  0.100000000E+01
 
   2
   s   9
  0.666500000E+04  0.692000179E-03
  0.100000000E+04  0.532900138E-02
  0.228000000E+03  0.270770070E-01
  0.647100000E+02  0.101718026E+00
  0.210600000E+02  0.274740071E+00
  0.749500000E+01  0.448564116E+00
  0.279700000E+01  0.285074074E+00
  0.521500000E+00  0.152040039E-01
  0.159600000E+00 -0.319100083E-02
   s   9
  0.666500000E+04 -0.146000064E-03
  0.100000000E+04 -0.115400051E-02
  0.228000000E+03 -0.572500252E-02
  0.647100000E+02 -0.233120103E-01
  0.210600000E+02 -0.639550281E-01
  0.749500000E+01 -0.149981066E+00
  0.279700000E+01 -0.127262056E+00
  0.521500000E+00  0.544529240E+00
  0.159600000E+00  0.580496255E+00
   s   1
  0.159600000E+00  0.100000000E+01
   p   4
  0.943900000E+01  0.381090213E-01
  0.200200000E+01  0.209480117E+00
  0.545600000E+00  0.508557284E+00
  0.151700000E+00  0.468842262E+00
   p   1
  0.151700000E+00  0.100000000E+01
   d   1
  0.550000000E+00  0.100000000E+01
 
   3
   s   9
  0.117200000E+05  0.710000250E-03
  0.175900000E+04  0.547000193E-02
  0.400800000E+03  0.278370098E-01
  0.113700000E+03  0.104800037E+00
  0.370300000E+02  0.283062100E+00
  0.132700000E+02  0.448719158E+00
  0.502500000E+01  0.270952096E+00
  0.101300000E+01  0.154580054E-01
  0.302300000E+00 -0.258500091E-02
   s   9
  0.117200000E+05 -0.160000015E-03
  0.175900000E+04 -0.126300012E-02
  0.400800000E+03 -0.626700060E-02
  0.113700000E+03 -0.257160025E-01
  0.370300000E+02 -0.709240068E-01
  0.132700000E+02 -0.165411016E+00
  0.502500000E+01 -0.116955011E+00
  0.101300000E+01  0.557368054E+00
  0.302300000E+00  0.572759055E+00
   s   1
  0.302300000E+00  0.100000000E+01
   p   4
  0.177000000E+02  0.430179924E-01
  0.385400000E+01  0.228912960E+00
  0.104600000E+01  0.508727910E+00
  0.275300000E+00  0.460530919E+00
   p   1
  0.275300000E+00  0.100000000E+01
   d   1
  0.118500000E+01  0.100000000E+01
 
   4
   s   4
  0.130100000E+02  0.196849900E-01
  0.196200000E+01  0.137976930E+00
  0.444600000E+00  0.478147757E+00
  0.122000000E+00  0.501239745E+00
   s   1
  0.122000000E+00  0.100000000E+01
   p   1
  0.727000000E+00  0.100000000E+01
 
   5
   s   9
  0.117200000E+05  0.710000250E-03
  0.175900000E+04  0.547000193E-02
  0.400800000E+03  0.278370098E-01
  0.113700000E+03  0.104800037E+00
  0.370300000E+02  0.283062100E+00
  0.132700000E+02  0.448719158E+00
  0.502500000E+01  0.270952096E+00
  0.101300000E+01  0.154580054E-01
  0.302300000E+00 -0.258500091E-02
   s   9
  0.117200000E+05 -0.160000015E-03
  0.175900000E+04 -0.126300012E-02
  0.400800000E+03 -0.626700060E-02
  0.113700000E+03 -0.257160025E-01
  0.370300000E+02 -0.709240068E-01
  0.132700000E+02 -0.165411016E+00
  0.502500000E+01 -0.116955011E+00
  0.101300000E+01  0.557368054E+00
  0.302300000E+00  0.572759055E+00
   s   1
  0.302300000E+00  0.100000000E+01
   p   4
  0.177000000E+02  0.430179924E-01
  0.385400000E+01  0.228912960E+00
  0.104600000E+01  0.508727910E+00
  0.275300000E+00  0.460530919E+00
   p   1
  0.275300000E+00  0.100000000E+01
   d   1
  0.118500000E+01  0.100000000E+01
 
[MO]
Sym=     1a  
Ene=   -20.6730
Spin= Alpha
Occup=    2.00000
   1         0.00022463
   2        -0.00000000
   3         0.00000000
   4         0.00000000
   5         0.00000000
   6         0.00003068
   7         0.00107631
   8        -0.00000000
   9         0.00130250
  10         0.00000000
  11         0.00041441
  12        -0.00000000
  13         0.00000000
  14        -0.00000000
  15        -0.00000000
  16         0.00000000
  17         0.00000000
  18         0.00000000
  19        -0.00000000
  20         0.99790403
  21         0.00011273
  22         0.00000000
  23        -0.00001810
  24         0.00000000
  25         0.00001027
  26        -0.00000000
  27        -0.00000000
  28        -0.00000000
  29        -0.00000000
  30        -0.00000000
  31        -0.00000000
  32        -0.00000000
  33         0.00000000
  34         0.00157585
  35         0.00000000
  36        -0.00000000
  37         0.00000000
  38        -0.00000000
  39        -0.06114192
  40         0.00004291
  41         0.00000000
  42         0.00010504
  43        -0.00000000
  44        -0.00000215
  45         0.00000000
  46        -0.00000000
  47         0.00000000
  48         0.00000000
  49         0.00000000
  50         0.00000000
  51        -0.00000000
  52        -0.00000000
Sym=     2a  
Ene=   -20.6730
Spin= Alpha
Occup=    2.00000
   1         0.00024428
   2         0.00000000
   3         0.00000000
   4         0.00000000
   5        -0.00000000
   6         0.00020991
   7         0.00163578
   8        -0.00000000
   9        -0.00130648
  10         0.00000000
  11         0.00096367
  12        -0.00000000
  13        -0.00000000
  14         0.00000000
  15        -0.00000000
  16         0.00000000
  17        -0.00000000
  18        -0.00000000
  19         0.00000000
  20         0.06113565
  21         0.00005287
  22         0.00000000
  23        -0.00010351
  24         0.00000000
  25         0.00001552
  26        -0.00000000
  27        -0.00000000
  28        -0.00000000
  29        -0.00000000
  30         0.00000000
  31         0.00000000
  32         0.00000000
  33         0.00000000
  34         0.00023532
  35        -0.00000000
  36         0.00000000
  37        -0.00000000
  38        -0.00000000
  39         0.99792301
  40         0.00009856
  41         0.00000000
  42         0.00003360
  43         0.00000000
  44        -0.00001840
  45         0.00000000
  46         0.00000000
  47        -0.00000000
  48        -0.00000000
  49         0.00000000
  50        -0.00000000
  51         0.00000000
  52         0.00000000
Sym=     3a  
Ene=   -11.3410
Spin= Alpha
Occup=    2.00000
   1         0.00374469
   2        -0.00000000
   3        -0.00000000
   4         0.00000000
   5         0.00000000
   6         0.99853201
   7         0.00060008
   8        -0.00000000
   9        -0.00002290
  10        -0.00000000
  11         0.00005963
  12        -0.00000000
  13         0.00000000
  14        -0.00000000
  15        -0.00000000
  16         0.00000000
  17         0.00000000
  18        -0.00000000
  19        -0.00000000
  20        -0.00023209
  21         0.00377040
  22         0.00000000
  23        -0.00368580
  24         0.00000000
  25        -0.00138702
  26         0.00000000
  27        -0.00000000
  28        -0.00000000
  29         0.00000000
  30        -0.00000000
  31         0.00000000
  32        -0.00000000
  33         0.00000000
  34         0.00099506
  35         0.00000000
  36        -0.00000000
  37        -0.00000000
  38         0.00000000
  39        -0.00048052
  40         0.00553975
  41         0.00000000
  42         0.00440144
  43        -0.00000000
  44        -0.00297158
  45         0.00000000
  46         0.00000000
  47        -0.00000000
  48         0.00000000
  49        -0.00000000
  50         0.00000000
  51        -0.00000000
  52        -0.00000000
Sym=     4a  
Ene=    -1.7955
Spin= Alpha
Occup=    2.00000
   1         0.10200032
   2         0.00000000
   3         0.00000000
   4         0.00000000
   5         0.00000000
   6        -0.06548409
   7         0.30232595
   8         0.00000000
   9         0.02761362
  10        -0.00000000
  11         0.06413200
  12        -0.00000000
  13        -0.00000000
  14         0.00000000
  15        -0.00000000
  16         0.00000000
  17         0.00000000
  18         0.00000000
  19         0.00000000
  20        -0.02629802
  21         0.50972086
  22         0.00000000
  23        -0.08403801
  24        -0.00000000
  25         0.01365461
  26         0.00000000
  27         0.00000000
  28         0.00000000
  29         0.00000000
  30        -0.00000000
  31        -0.00000000
  32         0.00000000
  33         0.00000000
  34         0.15492200
  35         0.00000000
  36        -0.00000000
  37         0.00000000
  38         0.00000000
  39        -0.01812260
  40         0.37417359
  41        -0.00000000
  42         0.08957060
  43        -0.00000000
  44        -0.03013246
  45         0.00000000
  46         0.00000000
  47         0.00000000
  48        -0.00000000
  49        -0.00000000
  50        -0.00000000
  51         0.00000000
  52        -0.00000000
Sym=     5a  
Ene=    -1.4603
Spin= Alpha
Occup=    2.00000
   1         0.03282474
   2         0.00000000
   3         0.00000000
   4        -0.00000000
   5        -0.00000000
   6        -0.02249730
   7         0.09958869
   8         0.00000000
   9        -0.20800435
  10        -0.00000000
  11         0.02127433
  12        -0.00000000
  13         0.00000000
  14         0.00000000
  15         0.00000000
  16        -0.00000000
  17         0.00000000
  18         0.00000000
  19        -0.00000000
  20         0.01588376
  21        -0.49867819
  22         0.00000000
  23        -0.02628805
  24        -0.00000000
  25        -0.01659119
  26         0.00000000
  27         0.00000000
  28         0.00000000
  29         0.00000000
  30         0.00000000
  31        -0.00000000
  32         0.00000000
  33         0.00000000
  34        -0.11607543
  35         0.00000000
  36        -0.00000000
  37        -0.00000000
  38         0.00000000
  39        -0.01965734
  40         0.64483481
  41        -0.00000000
  42         0.00796438
  43         0.00000000
  44        -0.05630937
  45        -0.00000000
  46        -0.00000000
  47         0.00000000
  48        -0.00000000
  49         0.00000000
  50         0.00000000
  51        -0.00000000
  52         0.00000000
Sym=     6a  
Ene=    -1.0110
Spin= Alpha
Occup=    2.00000
   1        -0.33117472
   2         0.00000000
   3        -0.00000000
   4        -0.00000000
   5        -0.00000000
   6         0.04125887
   7        -0.31170852
   8        -0.00000000
   9        -0.04391582
  10        -0.00000000
  11         0.27606780
  12        -0.00000000
  13        -0.00000000
  14         0.00000000
  15         0.00000000
  16         0.00000000
  17        -0.00000000
  18         0.00000000
  19         0.00000000
  20        -0.00144627
  21         0.11467126
  22        -0.00000000
  23         0.12013215
  24        -0.00000000
  25         0.34686938
  26         0.00000000
  27         0.00000000
  28        -0.00000000
  29         0.00000000
  30         0.00000000
  31        -0.00000000
  32        -0.00000000
  33        -0.00000000
  34         0.17503884
  35        -0.00000000
  36         0.00000000
  37        -0.00000000
  38         0.00000000
  39         0.00107104
  40         0.29705882
  41        -0.00000000
  42        -0.05153943
  43        -0.00000000
  44         0.24026722
  45        -0.00000000
  46         0.00000000
  47        -0.00000000
  48         0.00000000
  49        -0.00000000
  50        -0.00000000
  51        -0.00000000
  52         0.00000000
Sym=     7a  
Ene=    -0.7787
Spin= Alpha
Occup=    2.00000
   1        -0.07249024
   2        -0.00000000
   3         0.00000000
   4        -0.00000000
   5         0.00000000
   6        -0.03670946
   7         0.15235491
   8        -0.00000000
   9         0.04726130
  10        -0.00000000
  11         0.20564868
  12         0.00000000
  13         0.00000000
  14        -0.00000000
  15        -0.00000000
  16         0.00000000
  17         0.00000000
  18        -0.00000000
  19        -0.00000000
  20        -0.01590316
  21        -0.36658172
  22         0.00000000
  23        -0.52207145
  24         0.00000000
  25         0.17850548
  26        -0.00000000
  27        -0.00000000
  28         0.00000000
  29         0.00000000
  30         0.00000000
  31         0.00000000
  32         0.00000000
  33         0.00000000
  34         0.03946735
  35        -0.00000000
  36         0.00000000
  37         0.00000000
  38         0.00000000
  39        -0.01407972
  40        -0.30575741
  41         0.00000000
  42         0.53861368
  43        -0.00000000
  44         0.08246622
  45         0.00000000
  46        -0.00000000
  47        -0.00000000
  48        -0.00000000
  49         0.00000000
  50         0.00000000
  51         0.00000000
  52        -0.00000000
Sym=     8a  
Ene=    -0.7654
Spin= Alpha
Occup=    2.00000
   1         0.00000000
   2         0.00000000
   3         0.00000000
   4        -0.00000000
   5         0.00000000
   6         0.00000000
   7         0.00000000
   8        -0.00000000
   9        -0.00000000
  10         0.38669122
  11         0.00000000
  12        -0.00000000
  13        -0.00000000
  14         0.00000000
  15        -0.00000000
  16        -0.00000000
  17         0.00000000
  18         0.00000000
  19         0.00000000
  20        -0.00000000
  21        -0.00000000
  22         0.00000000
  23        -0.00000000
  24         0.50216986
  25         0.00000000
  26        -0.00000000
  27        -0.00000000
  28         0.00000000
  29         0.00000000
  30         0.00000000
  31         0.00000000
  32         0.00000000
  33         0.00000000
  34        -0.00000000
  35         0.00000000
  36         0.00000000
  37         0.00000000
  38         0.00000000
  39         0.00000000
  40         0.00000000
  41        -0.00000000
  42         0.00000000
  43         0.59614199
  44         0.00000000
  45        -0.00000000
  46        -0.00000000
  47         0.00000000
  48        -0.00000000
  49         0.00000000
  50         0.00000000
  51        -0.00000000
  52        -0.00000000
Sym=     9a  
Ene=    -0.7213
Spin= Alpha
Occup=    2.00000
   1        -0.11988592
   2         0.00000000
   3        -0.00000000
   4        -0.00000000
   5         0.00000000
   6         0.00777514
   7        -0.05274410
   8         0.00000000
   9         0.23834160
  10        -0.00000000
  11         0.11162940
  12        -0.00000000
  13        -0.00000000
  14         0.00000000
  15         0.00000000
  16        -0.00000000
  17        -0.00000000
  18        -0.00000000
  19         0.00000000
  20         0.00147774
  21         0.07830559
  22        -0.00000000
  23        -0.21459276
  24        -0.00000000
  25        -0.56002127
  26        -0.00000000
  27         0.00000000
  28        -0.00000000
  29        -0.00000000
  30        -0.00000000
  31         0.00000000
  32        -0.00000000
  33        -0.00000000
  34        -0.22599997
  35        -0.00000000
  36        -0.00000000
  37         0.00000000
  38        -0.00000000
  39         0.01509485
  40         0.24795921
  41        -0.00000000
  42        -0.08482451
  43        -0.00000000
  44         0.53730031
  45        -0.00000000
  46        -0.00000000
  47        -0.00000000
  48         0.00000000
  49        -0.00000000
  50         0.00000000
  51        -0.00000000
  52         0.00000000
Sym=    10a  
Ene=    -0.6177
Spin= Alpha
Occup=    2.00000
   1        -0.00000000
   2        -0.00000000
   3         0.00000000
   4        -0.00000000
   5        -0.00000000
   6         0.00000000
   7         0.00000000
   8        -0.00000000
   9        -0.00000000
  10         0.01136235
  11        -0.00000000
  12        -0.00000000
  13         0.00000000
  14         0.00000000
  15         0.00000000
  16         0.00000000
  17        -0.00000000
  18        -0.00000000
  19         0.00000000
  20        -0.00000000
  21        -0.00000000
  22         0.00000000
  23         0.00000000
  24        -0.77877385
  25        -0.00000000
  26        -0.00000000
  27         0.00000000
  28         0.00000000
  29        -0.00000000
  30         0.00000000
  31         0.00000000
  32         0.00000000
  33        -0.00000000
  34         0.00000000
  35         0.00000000
  36        -0.00000000
  37         0.00000000
  38        -0.00000000
  39         0.00000000
  40         0.00000000
  41        -0.00000000
  42         0.00000000
  43         0.64526530
  44        -0.00000000
  45        -0.00000000
  46         0.00000000
  47         0.00000000
  48         0.00000000
  49        -0.00000000
  50        -0.00000000
  51        -0.00000000
  52         0.00000000
Sym=    11a  
Ene=    -0.5927
Spin= Alpha
Occup=    2.00000
   1        -0.19532841
   2        -0.00000000
   3        -0.00000000
   4        -0.00000000
   5        -0.00000000
   6        -0.01769068
   7        -0.03321400
   8         0.00000000
   9        -0.14568456
  10        -0.00000000
  11         0.16604386
  12         0.00000000
  13        -0.00000000
  14        -0.00000000
  15         0.00000000
  16        -0.00000000
  17        -0.00000000
  18         0.00000000
  19        -0.00000000
  20         0.01555451
  21         0.19776128
  22        -0.00000000
  23         0.54968153
  24         0.00000000
  25        -0.37638507
  26         0.00000000
  27         0.00000000
  28         0.00000000
  29        -0.00000000
  30         0.00000000
  31         0.00000000
  32        -0.00000000
  33        -0.00000000
  34        -0.14936638
  35        -0.00000000
  36         0.00000000
  37         0.00000000
  38         0.00000000
  39        -0.01151679
  40        -0.05033066
  41        -0.00000000
  42         0.65197156
  43        -0.00000000
  44        -0.16612659
  45        -0.00000000
  46         0.00000000
  47         0.00000000
  48        -0.00000000
  49        -0.00000000
  50         0.00000000
  51         0.00000000
  52         0.00000000
Sym=    12a  
Ene=    -0.5478
Spin= Alpha
Occup=    2.00000
   1         0.39809149
   2        -0.00000000
   3         0.00000000
   4        -0.00000000
   5        -0.00000000
   6         0.01697837
   7         0.10428416
   8         0.00000000
   9        -0.02129108
  10         0.00000000
  11        -0.25158896
  12        -0.00000000
  13        -0.00000000
  14         0.00000000
  15        -0.00000000
  16         0.00000000
  17        -0.00000000
  18         0.00000000
  19        -0.00000000
  20        -0.00934511
  21        -0.20194251
  22        -0.00000000
  23         0.38846102
  24         0.00000000
  25         0.21690332
  26         0.00000000
  27         0.00000000
  28        -0.00000000
  29        -0.00000000
  30        -0.00000000
  31         0.00000000
  32        -0.00000000
  33         0.00000000
  34         0.12824314
  35        -0.00000000
  36         0.00000000
  37        -0.00000000
  38        -0.00000000
  39         0.00206204
  40        -0.01361361
  41        -0.00000000
  42         0.29218597
  43        -0.00000000
  44         0.72506848
  45        -0.00000000
  46        -0.00000000
  47         0.00000000
  48        -0.00000000
  49        -0.00000000
  50        -0.00000000
  51        -0.00000000
  52        -0.00000000
Sym=    13a  
Ene=    -0.3141
Spin= Alpha
Occup=    0.00000
   1         0.00000000
   2         0.00000000
   3         0.00000000
   4        -0.00000000
   5         0.00000000
   6         0.00000000
   7         0.00000000
   8        -0.00000000
   9        -0.00000000
  10        -1.00747850
  11         0.00000000
  12        -0.00000000
  13        -0.00000000
  14         0.00000000
  15        -0.00000000
  16        -0.00000000
  17         0.00000000
  18         0.00000000
  19        -0.00000000
  20        -0.00000000
  21        -0.00000000
  22         0.00000000
  23        -0.00000000
  24         0.45239904
  25        -0.00000000
  26         0.00000000
  27        -0.00000000
  28         0.00000000
  29         0.00000000
  30        -0.00000000
  31         0.00000000
  32        -0.00000000
  33        -0.00000000
  34        -0.00000000
  35        -0.00000000
  36        -0.00000000
  37         0.00000000
  38         0.00000000
  39         0.00000000
  40         0.00000000
  41        -0.00000000
  42        -0.00000000
  43         0.57187216
  44         0.00000000
  45        -0.00000000
  46        -0.00000000
  47        -0.00000000
  48         0.00000000
  49         0.00000000
  50         0.00000000
  51        -0.00000000
  52        -0.00000000
Sym=    14a  
Ene=    -0.2255
Spin= Alpha
Occup=    0.00000
   1         0.06630989
   2         0.00000000
   3        -0.00000000
   4        -0.00000000
   5         0.00000000
   6        -0.03745168
   7        -0.35703147
   8        -0.00000000
   9        -0.40910227
  10        -0.00000000
  11        -0.28946279
  12         0.00000000
  13        -0.00000000
  14        -0.00000000
  15        -0.00000000
  16         0.00000000
  17        -0.00000000
  18        -0.00000000
  19         0.00000000
  20         0.10504772
  21         1.00661865
  22         0.00000000
  23        -0.37651363
  24         0.00000000
  25         0.54432974
  26        -0.00000000
  27        -0.00000000
  28         0.00000000
  29         0.00000000
  30         0.00000000
  31        -0.00000000
  32        -0.00000000
  33        -0.00000000
  34        -1.01022732
  35         0.00000000
  36        -0.00000000
  37        -0.00000000
  38         0.00000000
  39         0.00497258
  40         0.08251524
  41         0.00000000
  42         0.21075726
  43        -0.00000000
  44         0.15902344
  45         0.00000000
  46         0.00000000
  47        -0.00000000
  48         0.00000000
  49        -0.00000000
  50         0.00000000
  51         0.00000000
  52         0.00000000
Sym=    15a  
Ene=    -0.1666
Spin= Alpha
Occup=    0.00000
   1        -0.07555582
   2         0.00000000
   3         0.00000000
   4        -0.00000000
   5        -0.00000000
   6         0.10253401
   7         0.91614817
   8         0.00000000
   9         0.79181743
  10        -0.00000000
  11         0.45984344
  12        -0.00000000
  13         0.00000000
  14         0.00000000
  15         0.00000000
  16        -0.00000000
  17        -0.00000000
  18         0.00000000
  19        -0.00000000
  20        -0.03136178
  21        -0.29048778
  22        -0.00000000
  23         0.61986254
  24         0.00000000
  25         0.67049251
  26         0.00000000
  27        -0.00000000
  28        -0.00000000
  29         0.00000000
  30        -0.00000000
  31         0.00000000
  32        -0.00000000
  33         0.00000000
  34        -0.82486485
  35        -0.00000000
  36        -0.00000000
  37         0.00000000
  38        -0.00000000
  39        -0.00267972
  40        -0.06885920
  41        -0.00000000
  42        -0.25385970
  43         0.00000000
  44        -0.08687208
  45        -0.00000000
  46        -0.00000000
  47         0.00000000
  48         0.00000000
  49         0.00000000
  50         0.00000000
  51        -0.00000000
  52         0.00000000
Sym=    16a  
Ene=    -0.1495
Spin= Alpha
Occup=    0.00000
   1         0.21460302
   2        -0.00000000
   3        -0.00000000
   4         0.00000000
   5        -0.00000000
   6        -0.13229071
   7        -1.01172125
   8         0.00000000
   9         1.05968605
  10        -0.00000000
  11        -0.46124693
  12         0.00000000
  13        -0.00000000
  14         0.00000000
  15        -0.00000000
  16         0.00000000
  17         0.00000000
  18         0.00000000
  19        -0.00000000
  20        -0.02351859
  21        -0.15867628
  22        -0.00000000
  23        -0.04233777
  24        -0.00000000
  25         0.18779115
  26         0.00000000
  27         0.00000000
  28         0.00000000
  29        -0.00000000
  30         0.00000000
  31        -0.00000000
  32         0.00000000
  33        -0.00000000
  34         0.03013387
  35        -0.00000000
  36         0.00000000
  37        -0.00000000
  38        -0.00000000
  39         0.13215225
  40         1.06588611
  41         0.00000000
  42         0.63903654
  43         0.00000000
  44        -0.51648405
  45         0.00000000
  46        -0.00000000
  47        -0.00000000
  48        -0.00000000
  49        -0.00000000
  50         0.00000000
  51         0.00000000
  52        -0.00000000
Sym=    17a  
Ene=    -0.1151
Spin= Alpha
Occup=    0.00000
   1        -1.43167131
   2         0.00000000
   3         0.00000000
   4        -0.00000000
   5        -0.00000000
   6         0.10057302
   7         0.83579374
   8         0.00000000
   9         0.10098312
  10        -0.00000000
  11        -1.21284801
  12        -0.00000000
  13        -0.00000000
  14         0.00000000
  15         0.00000000
  16        -0.00000000
  17        -0.00000000
  18         0.00000000
  19         0.00000000
  20        -0.00300348
  21        -0.04958125
  22        -0.00000000
  23        -0.01652530
  24         0.00000000
  25         0.12404560
  26         0.00000000
  27        -0.00000000
  28         0.00000000
  29         0.00000000
  30        -0.00000000
  31        -0.00000000
  32        -0.00000000
  33         0.00000000
  34         0.13992041
  35         0.00000000
  36        -0.00000000
  37         0.00000000
  38        -0.00000000
  39         0.03479448
  40         0.21343613
  41        -0.00000000
  42         0.15922122
  43        -0.00000000
  44         0.14761837
  45        -0.00000000
  46         0.00000000
  47         0.00000000
  48         0.00000000
  49         0.00000000
  50         0.00000000
  51        -0.00000000
  52         0.00000000
Sym=    18a  
Ene=     3.7880
Spin= Alpha
Occup=    0.00000
   1         0.57303771
   2        -3.23282344
   3         0.00978596
   4        -0.00000000
   5        -0.41389803
   6        -0.15211398
   7        -0.53960134
   8         1.81632072
   9         0.02592499
  10         0.00000000
  11         0.21757288
  12        -0.23405126
  13        -0.00000000
  14        -2.20293979
  15         0.29695107
  16         0.02817336
  17         0.00000000
  18        -0.04896511
  19        -0.00000000
  20        -0.02655488
  21        -0.07242146
  22         0.29672156
  23         0.01036614
  24        -0.00000000
  25        -0.02031187
  26        -0.26531882
  27         0.00000000
  28         0.00445321
  29        -0.02278491
  30         0.00771653
  31         0.00000000
  32         0.01573098
  33        -0.00000000
  34        -0.31242907
  35         0.90080784
  36        -0.03505954
  37        -0.00000000
  38        -0.06294633
  39        -0.05025866
  40        -0.15910104
  41         0.59317302
  42        -0.01986158
  43         0.00000000
  44        -0.04322627
  45         0.18960023
  46         0.00000000
  47         0.20752653
  48        -0.00026235
  49        -0.01123558
  50        -0.00000000
  51         0.00578367
  52        -0.00000000
Sym=    19a  
Ene=     3.9953
Spin= Alpha
Occup=    0.00000
   1         0.20254005
   2        -0.58009180
   3        -0.09250435
   4         0.00000000
   5        -0.08475670
   6        -0.21725380
   7        -0.83492942
   8         2.49174217
   9        -0.35910687
  10        -0.00000000
  11        -0.03851140
  12         2.24233844
  13        -0.00000000
  14         0.42909303
  15        -0.01358911
  16         0.22496740
  17         0.00000000
  18         0.13446616
  19         0.00000000
  20         0.11898876
  21         0.35944836
  22        -1.37474188
  23        -0.05144986
  24        -0.00000000
  25        -0.10220941
  26         0.82877165
  27         0.00000000
  28         0.83976206
  29         0.09882362
  30        -0.05008891
  31         0.00000000
  32        -0.05077975
  33        -0.00000000
  34         0.78689298
  35        -2.07037091
  36        -0.11439389
  37         0.00000000
  38         0.33113713
  39        -0.08336921
  40        -0.28956470
  41         0.82792257
  42        -0.01274070
  43        -0.00000000
  44         0.02388302
  45        -0.14306756
  46         0.00000000
  47        -0.24206457
  48        -0.00211580
  49        -0.02885109
  50        -0.00000000
  51         0.01572171
  52        -0.00000000
Sym=    20a  
Ene=     4.1189
Spin= Alpha
Occup=    0.00000
   1        -0.27223348
   2         0.34961431
   3        -0.05927719
   4        -0.00000000
   5         0.11154568
   6         0.12421477
   7         0.55675494
   8        -2.38904937
   9        -0.26679748
  10        -0.00000000
  11         0.07254572
  12         1.90702733
  13        -0.00000000
  14        -1.10428823
  15        -0.08877741
  16         0.46795031
  17        -0.00000000
  18        -0.19616408
  19         0.00000000
  20         0.11296971
  21         0.40690807
  22        -1.27079268
  23        -0.03661804
  24         0.00000000
  25         0.02381981
  26        -0.11316311
  27         0.00000000
  28         0.00296825
  29        -0.06268092
  30        -0.00216222
  31        -0.00000000
  32        -0.02300210
  33         0.00000000
  34        -0.67172560
  35         1.47059844
  36        -0.00647263
  37         0.00000000
  38        -0.32525521
  39        -0.22456998
  40        -0.74055622
  41         2.92299826
  42        -0.03717894
  43        -0.00000000
  44         0.04744819
  45         0.62177999
  46         0.00000000
  47        -0.52426147
  48        -0.00426112
  49        -0.08367630