   This run of MOLCAS is using the pymolcas driver

                             OPE
                             OPE          NMOL  CASOP  ENMOLC A   SO
                 OPE        NMOLC        AS  OP EN  MO LC     AS  OP
                OPENM       OL CA        SO  PE NM  OL CA     SOP EN
                OP EN      MO   LC       AS  OP ENMOL  CASO   PENMOL
                OP  EN     MO   LC       AS  OP EN     MO     LC ASO
               OP   E  NMOL  C  AS       OP  EN MO     LC     AS  OP
               OP  E   NMO   LC AS        OPEN  MO     LCASOP EN   M
               O  PEN   MO  LCA  SO
            OPE   NMO   L   CAS    OP
        OPENMOL  CASOP     ENMOL   CASOPE
     OPENMOLCA   SOPENMOLCASOPEN   MOLCASOPE
    OPENMOLCAS   OP           EN   MOL    CAS
    OPENMOLCAS       OP  ENM        O     LCA
    OPENMOLCAS    OPEN  MOLCASO     P  E  NMO
    OPENMOLCAS     OP               E  N  MOL
    OPENMOLCA   SO           PENM   O  L  CAS    OPEN    MO    LCAS
    OPENMOLCA   SOP           ENM   O  L  CAS   OP  EN  MOLC  AS   O
    OPENMOLCA   SOPE           NM      O  LCA   S      OP  EN MO
    OPENMOLC                AS         O  PEN   M      OL  CA  SOPE
    OPENMO        LCASOPE  NMOL        C  ASO   P      ENMOLC     AS
    OPE     NMO      LCA  SO     P     E   NM   OL  CA SO  PE N   MO
          OPENMOLCA            SOPE   NMO        LCAS  O    P  ENMO
     OPENMOLCASOPENMOLCASOPENMOLCASOPENMOLCA
        OPENMOLCASOPENMOLCASOPENMOLCASOPE
            OPENMOLCASOPENMOLCASOPENM
               OPENMOLCASOPENMOLCA        version: v20.10 ?
                   OPENMOLCASO
                       OPE                tag:

 OpenMolcas is free software; you can redistribute it and/or modify it
 under the terms of the GNU Lesser General Public License version 2.1.
 OpenMolcas is distributed in the hope that it will be useful, but it
 is provided "as is" and without any express or implied warranties.
 For more details see the full text of the license in the file
 LICENSE or in <http://www.gnu.org/licenses/>.

                 Copyright (C) The OpenMolcas Authors
           For the author list and the recommended citation,
                   consult the file CONTRIBUTORS.md

           *************************************************
           * pymolcas version py2.13                       *
           *   build 7d4e6aa3a62dfd03c2048a42281fd4ad      *
           *   (after the EMIL interpreter by V. Veryazov) *
           *************************************************

configuration info
------------------
Host name: build-node.computecanada.ca (Linux)
C Compiler ID: Intel
C flags: -O2 -march=core-avx2 -axCore-AVX512 -ftz -fp-speculation=safe -fp-model source -std=gnu99 -qopenmp
Fortran Compiler ID: Intel
Fortran flags: -O2 -march=core-avx2 -axCore-AVX512 -ftz -fp-speculation=safe -fp-model source  -fpp -i8 -r8 -heap-arrays -qopenmp
Definitions: _MOLCAS_;_I8_;_LINUX_;_GA_;_MOLCAS_MPP_;SCALAPACK;_MKL_;_FDE_
Parallel: ON (GA=ON)


   -----------------------------------------------------------------------------------------------------------------------------------
  |
  |           Project: inp
  |    Submitted from: /home/nike/Modeling_Matters/12546/Answer
  |      Scratch area: /tmp/inp
  |   Save outputs to: /home/nike/Modeling_Matters/12546/Answer
  |            Molcas: /cvmfs/soft.computecanada.ca/easybuild/software/2020/avx2/MPI/intel2020/openmpi4/openmolcas/20.10
  |
  | Scratch area is NOT empty
  |
  |    MOLCAS_DRIVER = /cvmfs/soft.computecanada.ca/easybuild/software/2020/avx2/MPI/intel2020/openmpi4/openmolcas/20.10/sbin/pymolcas
  |    MOLCAS_NPROCS = 1
  |    MOLCAS_SOURCE = /cvmfs/soft.computecanada.ca/easybuild/software/2020/avx2/MPI/intel2020/openmpi4/openmolcas/20.10
  | MOLCAS_STRUCTURE = 0
  |
   -----------------------------------------------------------------------------------------------------------------------------------

++ ---------   Input file   ---------

&GATEWAY
XBAS
C.cc-pVDZ
H.cc-pVDZ
O.cc-pVDZ
End of basis
ZMAT
H1
C1 1 1.097
O1 2 1.343 1 111
H2 3 0.972 2 106.3 1 180
O2 2 1.202 3 124.9 4 0
End of z-matrix

&SEWARD

&SCF
 UHF

&RASSCF
  OUTOrbitals= Canonical
  LumOrb
  OUTOrbitals= Canonical

&MOTRA
  JobIph

&CCSDT
  CCT

-- ----------------------------------

*** symbolic link created: INPORB -> inp.RasOrb
--- Start Module: gateway at Sun Mar 10 13:49:07 2024 ---
 
()()()()()()()()()()()()()()()()()()()()()()()()()()()()()()()()()()()()()()()()()()()()()()()()()()

                                              &GATEWAY

                       only a single process is used, running in SERIAL mode
                      available to each process: 2.0 GB of memory, 32 threads
                                             pid: 31980
()()()()()()()()()()()()()()()()()()()()()()()()()()()()()()()()()()()()()()()()()()()()()()()()()()
 
 
++    Symmetry information:
      ---------------------
 
                    Character Table for C1 
 
                             E  
                    a        1  x, y, xy, Rz, z, xz, Ry, yz, Rx, I
--
 
 
++    Basis set information:
      ----------------------
 
 
      Basis set label: H.CC-PVDZ.....
 
      Electronic valence basis set:
      ------------------
      Associated Effective Charge   1.000000 au
      Associated Actual Charge      1.000000 au
      Nuclear Model: Point charge
 
      Shell  nPrim  nBasis  Cartesian Spherical Contaminant
         s       4       2        X                  
         p       1       1        X                  
 
 
      Basis set label: C.CC-PVDZ.....
 
      Electronic valence basis set:
      ------------------
      Associated Effective Charge   6.000000 au
      Associated Actual Charge      6.000000 au
      Nuclear Model: Point charge
 
      Shell  nPrim  nBasis  Cartesian Spherical Contaminant
         s       9       3        X                  
         p       4       2        X                  
         d       1       1                 X         
 
 
      Basis set label: O.CC-PVDZ.....
 
      Electronic valence basis set:
      ------------------
      Associated Effective Charge   8.000000 au
      Associated Actual Charge      8.000000 au
      Nuclear Model: Point charge
 
      Shell  nPrim  nBasis  Cartesian Spherical Contaminant
         s       9       3        X                  
         p       4       2        X                  
         d       1       1                 X         
 
 
      Basis set label: H.CC-PVDZ.....
 
      Electronic valence basis set:
      ------------------
      Associated Effective Charge   1.000000 au
      Associated Actual Charge      1.000000 au
      Nuclear Model: Point charge
 
      Shell  nPrim  nBasis  Cartesian Spherical Contaminant
         s       4       2        X                  
         p       1       1        X                  
 
 
      Basis set label: O.CC-PVDZ.....
 
      Electronic valence basis set:
      ------------------
      Associated Effective Charge   8.000000 au
      Associated Actual Charge      8.000000 au
      Nuclear Model: Point charge
 
      Shell  nPrim  nBasis  Cartesian Spherical Contaminant
         s       9       3        X                  
         p       4       2        X                  
         d       1       1                 X         
--
 
 
++    Molecular structure info:
      -------------------------
 
                    ************************************************ 
                    **** Cartesian Coordinates / Bohr, Angstrom **** 
                    ************************************************ 
 
     Center  Label                x              y              z                     x              y              z
        1      H1               0.000000       0.000000       0.000000              0.000000       0.000000       0.000000
        2      C1               0.000000       0.000000       2.073030              0.000000       0.000000       1.097000
        3      O1               2.369336       0.000000       2.982532              1.253799       0.000000       1.578288
        4      H2               2.218830       0.000000       4.813170              1.174154       0.000000       2.547020
        5      O2              -1.880898       0.000000       3.346493             -0.995329       0.000000       1.770888
 
                    *************************************** 
                    *    InterNuclear Distances / Bohr    * 
                    *************************************** 
 
               1 H1            2 C1            3 O1            4 H2            5 O2    
    1 H1       0.000000
    2 C1       2.073030        0.000000
    3 O1       3.809101        2.537902        0.000000
    4 H2       5.299982        3.525844        1.836814        0.000000
    5 O2       3.838854        2.271451        4.265789        4.354183        0.000000
 
                    ******************************************* 
                    *    InterNuclear Distances / Angstrom    * 
                    ******************************************* 
 
               1 H1            2 C1            3 O1            4 H2            5 O2    
    1 H1       0.000000
    2 C1       1.097000        0.000000
    3 O1       2.015690        1.343000        0.000000
    4 H2       2.804630        1.865796        0.972000        0.000000
    5 O2       2.031434        1.202000        2.257358        2.304135        0.000000
 
                    ************************************** 
                    *    Valence Bond Angles / Degree    * 
                    ************************************** 
                          Atom centers                 Phi
                      1 H1       2 C1       3 O1       111.00
                      1 H1       2 C1       5 O2       124.10
                      3 O1       2 C1       5 O2       124.90
                      2 C1       3 O1       4 H2       106.30
 
           ***************************************************************
           *              Valence Dihedral Angles / Degree               *
           ***************************************************************
                    Atom centers                       Phi1     Phi2     Theta 
           1 H1       2 C1       3 O1       4 H2        111.00   106.30  -180.00
           4 H2       3 O1       2 C1       5 O2        106.30   124.90     0.00
--
 
 
            Nuclear Potential Energy             70.20979754 au
 
--- Stop Module: gateway at Sun Mar 10 13:49:08 2024 /rc=_RC_ALL_IS_WELL_ ---
*** files: xmldump
    saved to directory /home/nike/Modeling_Matters/12546/Answer

*** symbolic link created: INPORB -> inp.RasOrb
--- Start Module: seward at Sun Mar 10 13:49:08 2024 ---
 
()()()()()()()()()()()()()()()()()()()()()()()()()()()()()()()()()()()()()()()()()()()()()()()()()()

                                              &SEWARD

                       only a single process is used, running in SERIAL mode
                      available to each process: 2.0 GB of memory, 32 threads
                                             pid: 32020
()()()()()()()()()()()()()()()()()()()()()()()()()()()()()()()()()()()()()()()()()()()()()()()()()()
 
               SEWARD will generate:
                  Multipole Moment integrals up to order  2
                  Kinetic Energy integrals
                  Nuclear Attraction integrals (point charge)
                  One-Electron Hamiltonian integrals
                  Velocity integrals
                  Orbital angular momentum around ( 0.2184  0.0000  2.8466 )
                  Velocity quadrupole around ( 0.2184  0.0000  2.8466 )
                  Two-Electron Repulsion integrals
 
                   Integrals are discarded if absolute value <: 0.10E-13
                   Integral cutoff threshold is set to       <: 0.10E-15
 
            Nuclear Potential Energy             70.20979754 au
 
 
      Basis set specifications :
      Symmetry species         a  
      Basis functions           52
 
 
  Input file to MOLDEN was generated!
 
--- Stop Module: seward at Sun Mar 10 13:49:09 2024 /rc=_RC_ALL_IS_WELL_ ---
*** files: inp.GssOrb inp.guessorb.h5 inp.guessorb.molden xmldump
    saved to directory /home/nike/Modeling_Matters/12546/Answer
--- Module seward spent 1 second ---

*** symbolic link created: INPORB -> inp.UhfOrb
--- Start Module: scf at Sun Mar 10 13:49:09 2024 ---
 
()()()()()()()()()()()()()()()()()()()()()()()()()()()()()()()()()()()()()()()()()()()()()()()()()()

                                                &SCF

                       only a single process is used, running in SERIAL mode
                      available to each process: 2.0 GB of memory, 32 threads
                                             pid: 32108
()()()()()()()()()()()()()()()()()()()()()()()()()()()()()()()()()()()()()()()()()()()()()()()()()()
 
++    Input section:
      --------------
 
      Header of the integral files:
      
       Integrals generated by Gateway/Seward, Sun Mar 10 13:49:08 2024
 
 
      Cartesian coordinates in Angstrom:
      -----------------------------------------------------
      No.  Label        X            Y            Z        
      -----------------------------------------------------
       1   H1         0.00000000   0.00000000   0.00000000
       2   C1         0.00000000   0.00000000   1.09700000
       3   O1         1.25379851   0.00000000   1.57828816
       4   H2         1.17415428   0.00000000   2.54701970
       5   O2        -0.99532852   0.00000000   1.77088807
      -----------------------------------------------------
      Nuclear repulsion energy =   70.20979754
--
 
++    Orbital specifications:
      -----------------------
 
      Symmetry species               1
                                     a
      Frozen orbitals                0
      Start temperature = 0.500
      End temperature   = 0.010
      Temperature Factor= 0.460
      Deleted orbitals               0
      Total number of orbitals      52
      Number of basis functions     52
--
 
      Molecular charge                           0.000
 
++    Optimization specifications:
      ----------------------------
 
      SCF Algorithm: Conventional USCF
      D(i)-D(i-1) density differences are used
      Number of density matrices in core                5
      Maximum number of NDDO SCF iterations           400
      Maximum number of HF SCF iterations             400
      Threshold for SCF energy change            0.10E-08
      Threshold for density matrix               0.10E-03
      Threshold for Fock matrix                  0.15E-03
      Threshold for linear dependence            0.10E-08
      Threshold at which DIIS is turned on       0.15E+00
      Threshold at which QNR/C2DIIS is turned on 0.75E-01
      Threshold for Norm(delta) (QNR/C2DIIS)     0.20E-04
      DIIS extrapolation of the SCF procedure
      All orbitals punched on: UHFORB
--
 
      Detected guessorb starting orbitals                                             
 
 
++ Convergence information
                               UHF SCF        iterations: Energy and convergence statistics
 
Iter     Tot. SCF        One-elec.       Two-elec.     Energy      Max Dij or  Max Fij      DNorm      TNorm      AccCon     Time
         Energy          Energy          Energy        Change      Delta Norm                                                in Sec.
   1  -183.831884204  -392.409339329   138.367657581   0.00E+00    0.11E+00*   0.40E+00*    0.94E+01   0.89E+02   None         1.
   2  -186.691073741  -394.161214956   137.260343672  -0.29E+01*   0.26E+00*   0.21E+00*    0.92E+01   0.88E+02   EDIIS        1.
   3  -188.332246287  -398.170842087   139.628798256  -0.16E+01*   0.18E+00*   0.12E+00*    0.47E+01   0.89E+02   EDIIS        1.
   4  -188.732495648  -398.519800834   139.577507643  -0.40E+00*   0.15E+00*   0.92E-01*    0.16E+01   0.89E+02   EDIIS        1.
   5  -188.762011191  -397.701141864   138.729333129  -0.30E-01*   0.67E-01*   0.57E-01*    0.12E+01   0.89E+02   EDIIS        1.
   6  -188.777348976  -398.355399996   139.368253477  -0.15E-01*   0.60E-01*   0.33E-01*    0.49E+00   0.89E+02   EDIIS        1.
   7  -188.779583943  -397.993387203   139.004005717  -0.22E-02*   0.95E-02*   0.18E-01*    0.31E+00   0.89E+02   EDIIS        1.
 
       Fermi aufbau procedure completed!
      nOcc(alpha)=   12
      nOcc(beta) =   12
 
   8  -188.781257351  -398.165976097   139.174921202  -0.17E-02*   0.17E-01*   0.77E-02*    0.94E-01   0.89E+02   EDIIS        1.
   9  -188.781330911  -398.112833565   139.121705111  -0.74E-04*   0.23E-02*   0.47E-02*    0.69E-01   0.89E+02   EDIIS        1.
  10  -188.781428818  -398.138288465   139.147062104  -0.98E-04*   0.40E-02*   0.14E-02*    0.19E-01   0.89E+02   EDIIS        1.
  11  -188.781433274  -398.132391387   139.141160570  -0.45E-05*   0.94E-03*   0.54E-03*    0.12E-01   0.89E+02   EDIIS        1.
  12  -188.781435946  -398.136456698   139.145223209  -0.27E-05*   0.76E-03*   0.35E-03*    0.88E-02   0.89E+02   c2DIIS       1.
  13  -188.781437374  -398.134977349   139.143742432  -0.14E-05*   0.73E-03*   0.14E-03     0.21E-02   0.89E+02   QNRc2DIIS    1.
  14  -188.781437552  -398.134938485   139.143703390  -0.18E-06*   0.10E-02*   0.86E-04     0.13E-02   0.89E+02   QNRc2DIIS    1.
  15  -188.781437640  -398.134965101   139.143729918  -0.88E-07*   0.52E-04*   0.13E-04     0.17E-02   0.89E+02   QNRc2DIIS    1.
  16  -188.781437641  -398.134944037   139.143708853  -0.13E-08*   0.20E-04*   0.20E-05     0.11E-03   0.89E+02   QNRc2DIIS    1.
  17  -188.781437641  -398.134921573   139.143686389  -0.50E-10    0.33E-05    0.72E-06     0.43E-04   0.89E+02   QNRc2DIIS    1.
 
       Convergence after 17 Macro Iterations
--
 
 *****************************************************************************************************************************
 *                                                                                                                           *
 *                                             SCF/KS-DFT Program, Final results                                             *
 *                                                                                                                           *
 *                                                                                                                           *
 *                                                                                                                           *
 *                                                       Final Results                                                       *
 *                                                                                                                           *
 *****************************************************************************************************************************
 
::    Total SCF energy                               -188.7814376412
      One-electron energy                            -398.1349215733
      Two-electron energy                             139.1436863890
      Nuclear repulsion energy                         70.2097975432
      Kinetic energy (interpolated)                   188.5582912986
      Virial theorem                                    1.0011834343
      Total spin, S(S+1)                               -0.0000000000
      Total spin, S                                    -0.0000000000
      Max non-diagonal density matrix element           0.0000012758
      Max non-diagonal Fock matrix element              0.0000003080
 
 
      All orbitals with orbital energies smaller than  E(LUMO)+0.5 are printed
 
++    Molecular orbitals:
      -------------------
 
      Title: UHF orbitals (alpha)

      Molecular orbitals for symmetry species 1: a  
 
          Orbital            1         2         3         4         5         6         7         8         9        10    
          Energy          -20.6241  -20.5628  -11.3983   -1.4731   -1.3722   -0.8886   -0.7189   -0.7066   -0.6305   -0.5971
          Occ. No.          1.0000    1.0000    1.0000    1.0000    1.0000    1.0000    1.0000    1.0000    1.0000    1.0000
 
        1 H1     1s        -0.0006   -0.0002   -0.0002    0.0742    0.0177   -0.3969   -0.3822   -0.1348    0.0000    0.3468
        2 H1     *s         0.0004    0.0004    0.0018   -0.0395   -0.0107    0.1763    0.1332    0.0706   -0.0000   -0.0901
        3 H1     *px       -0.0002    0.0003   -0.0001    0.0004   -0.0063   -0.0012    0.0021    0.0033    0.0000    0.0105
        4 H1     *py       -0.0000    0.0000   -0.0000    0.0000    0.0000   -0.0000    0.0000    0.0000    0.0082   -0.0000
        5 H1     *pz       -0.0002   -0.0001   -0.0003    0.0113    0.0034   -0.0266   -0.0195   -0.0066    0.0000    0.0118
        6 C1     1s         0.0001    0.0002    1.0010   -0.0125   -0.0055   -0.0016    0.0061   -0.0101    0.0000   -0.0048
        7 C1     2s         0.0005    0.0004    0.0061    0.4514    0.1930   -0.5939    0.0489   -0.3498   -0.0000    0.0102
        8 C1     *s         0.0020    0.0019   -0.0030   -0.1957   -0.0720    0.1773   -0.0602    0.1564    0.0000    0.0406
        9 C1     2px        0.0003    0.0001    0.0008    0.0212   -0.3314   -0.1926    0.2776    0.3393    0.0000    0.2962
       10 C1     *px        0.0011   -0.0014   -0.0004   -0.0128    0.1367    0.0608   -0.1002   -0.1374   -0.0000   -0.1793
       11 C1     2py       -0.0000    0.0000   -0.0000   -0.0000    0.0000   -0.0000    0.0000    0.0000    0.4306   -0.0000
       12 C1     *py        0.0000   -0.0000    0.0000   -0.0000   -0.0000    0.0000   -0.0000   -0.0000   -0.0495    0.0000
       13 C1     2pz        0.0001   -0.0002    0.0010    0.1498    0.0950    0.2141    0.5023   -0.0662   -0.0000   -0.3341
       14 C1     *pz        0.0008    0.0015    0.0012   -0.0628   -0.0420   -0.0426   -0.1357    0.0690    0.0000    0.1308
       15 C1     *d2-       0.0000   -0.0000    0.0000    0.0000   -0.0000    0.0000    0.0000   -0.0000    0.0069    0.0000
       16 C1     *d1-      -0.0000    0.0000   -0.0000   -0.0000    0.0000   -0.0000    0.0000    0.0000    0.0292   -0.0000
       17 C1     *d0        0.0004    0.0002    0.0003   -0.0123    0.0045    0.0094    0.0050   -0.0196    0.0000    0.0234
       18 C1     *d1+      -0.0002    0.0007   -0.0003    0.0011   -0.0457   -0.0042    0.0146    0.0039    0.0000    0.0382
       19 C1     *d2+      -0.0001   -0.0003    0.0010    0.0272    0.0043   -0.0143    0.0089    0.0121   -0.0000   -0.0159
       20 O1     1s         1.0007    0.0003    0.0002   -0.0078    0.0045    0.0012    0.0002    0.0016   -0.0000   -0.0008
       21 O1     2s         0.0035    0.0000    0.0014    0.6621   -0.5353    0.1580   -0.1662    0.1722   -0.0000   -0.2214
       22 O1     *s        -0.0046   -0.0005   -0.0029   -0.0609    0.0476   -0.0196   -0.0432    0.0492   -0.0000   -0.0976
       23 O1     2px       -0.0020    0.0001   -0.0003   -0.1235    0.0414    0.2598   -0.5305    0.0794   -0.0000   -0.4043
       24 O1     *px        0.0025    0.0003    0.0017    0.0244   -0.0162   -0.0169    0.0211    0.0181   -0.0000   -0.0169
       25 O1     2py        0.0000    0.0000    0.0000    0.0000    0.0000   -0.0000    0.0000    0.0000    0.6764   -0.0000
       26 O1     *py        0.0000    0.0000    0.0000    0.0000    0.0000    0.0000    0.0000   -0.0000    0.0129   -0.0000
       27 O1     2pz        0.0012    0.0000   -0.0001    0.0243   -0.0258    0.4153   -0.0469   -0.4666    0.0000    0.4306
       28 O1     *pz       -0.0004   -0.0007    0.0000   -0.0245    0.0259   -0.0782    0.0174    0.0326   -0.0000   -0.0388
       29 O1     *d2-      -0.0000   -0.0000   -0.0000   -0.0000   -0.0000    0.0000   -0.0000   -0.0000   -0.0204    0.0000
       30 O1     *d1-       0.0000    0.0000    0.0000    0.0000    0.0000   -0.0000    0.0000    0.0000    0.0022   -0.0000
       31 O1     *d0        0.0001    0.0001   -0.0001   -0.0022   -0.0028    0.0118   -0.0130   -0.0075    0.0000    0.0065
       32 O1     *d1+      -0.0001    0.0001   -0.0001    0.0027   -0.0028   -0.0126   -0.0021    0.0112   -0.0000   -0.0062
       33 O1     *d2+      -0.0001   -0.0001   -0.0003    0.0087   -0.0011   -0.0100    0.0157   -0.0019    0.0000    0.0069
       34 H2     1s         0.0001    0.0005    0.0009    0.2087   -0.1828    0.4058   -0.0974   -0.3639    0.0000    0.3735
       35 H2     *s        -0.0001   -0.0003   -0.0005   -0.1050    0.0896   -0.1653    0.0174    0.1503   -0.0000   -0.1344
       36 H2     *px       -0.0001    0.0001   -0.0002   -0.0000   -0.0017    0.0056   -0.0183    0.0019   -0.0000   -0.0081
       37 H2     *py        0.0000    0.0000    0.0000    0.0000    0.0000   -0.0000    0.0000    0.0000    0.0207   -0.0000
       38 H2     *pz        0.0006   -0.0001   -0.0003   -0.0286    0.0237   -0.0367    0.0057    0.0250   -0.0000   -0.0255
       39 O2     1s        -0.0003    1.0008   -0.0002   -0.0059   -0.0107   -0.0002    0.0017   -0.0003    0.0000    0.0038
       40 O2     2s         0.0000    0.0035    0.0010    0.4305    0.6772    0.2436   -0.0436    0.3668    0.0000    0.1396
       41 O2     *s        -0.0004   -0.0052   -0.0021   -0.0466   -0.0590    0.0174   -0.0231    0.0943    0.0000    0.0422
       42 O2     2px       -0.0001    0.0023    0.0006    0.1157    0.1198   -0.0727    0.2683   -0.4273   -0.0000   -0.4274
       43 O2     *px       -0.0004   -0.0024   -0.0013   -0.0272   -0.0382   -0.0015   -0.0127    0.0192    0.0000    0.0217
       44 O2     2py       -0.0000    0.0000   -0.0000   -0.0000    0.0000   -0.0000   -0.0000    0.0000    0.3742   -0.0000
       45 O2     *py       -0.0000   -0.0000   -0.0000   -0.0000   -0.0000   -0.0000   -0.0000   -0.0000   -0.0090    0.0000
       46 O2     2pz        0.0001   -0.0014   -0.0003   -0.0576   -0.0970    0.1094    0.2641    0.3384    0.0000    0.2477
       47 O2     *pz       -0.0003    0.0015    0.0005    0.0194    0.0278   -0.0087   -0.0079   -0.0204   -0.0000   -0.0017
       48 O2     *d2-      -0.0000    0.0000   -0.0000   -0.0000    0.0000   -0.0000   -0.0000    0.0000    0.0162   -0.0000
       49 O2     *d1-       0.0000   -0.0000    0.0000    0.0000   -0.0000    0.0000   -0.0000   -0.0000   -0.0106    0.0000
       50 O2     *d0        0.0001    0.0001   -0.0000   -0.0034    0.0019    0.0000   -0.0142   -0.0021    0.0000    0.0042
       51 O2     *d1+      -0.0000   -0.0001   -0.0003   -0.0077   -0.0108    0.0047    0.0043    0.0185    0.0000    0.0136
       52 O2     *d2+      -0.0001    0.0002    0.0001    0.0081    0.0067   -0.0012    0.0095   -0.0104   -0.0000   -0.0119
 
          Orbital           11        12        13        14        15        16        17        18    
          Energy           -0.4869   -0.4646    0.1755    0.1850    0.2162    0.4033    0.4446    0.6522
          Occ. No.          1.0000    1.0000    0.0000    0.0000    0.0000    0.0000    0.0000    0.0000
 
        1 H1     1s         0.0000    0.3360   -0.0000   -0.1426    0.0449    0.1572    0.3914    0.0000
        2 H1     *s        -0.0000   -0.0465   -0.0000   -0.8551   -2.0970   -0.2580   -0.6604   -0.0000
        3 H1     *px       -0.0000   -0.0038    0.0000    0.0132   -0.0051    0.0288   -0.0124   -0.0000
        4 H1     *py        0.0056   -0.0000   -0.0336   -0.0000    0.0000   -0.0000   -0.0000    0.0323
        5 H1     *pz        0.0000    0.0045   -0.0000   -0.0072   -0.0256   -0.0010   -0.0145   -0.0000
        6 C1     1s         0.0000   -0.0014    0.0000   -0.0090   -0.0400    0.0375    0.1097    0.0000
        7 C1     2s         0.0000    0.0494    0.0000    0.1146    0.1824    0.0775    0.0595    0.0000
        8 C1     *s        -0.0000    0.0208    0.0000    0.2831    1.4949   -0.9352   -2.1651    0.0000
        9 C1     2px        0.0000   -0.0324    0.0000    0.0863   -0.0052    0.1668   -0.2463    0.0000
       10 C1     *px        0.0000    0.0584    0.0000   -0.1534    0.0471    1.8207   -0.8453   -0.0000
       11 C1     2py        0.2692   -0.0000   -0.7081   -0.0000    0.0000   -0.0000   -0.0000    1.5024
       12 C1     *py       -0.0210    0.0000   -0.4154   -0.0000    0.0000    0.0000   -0.0000   -1.8754
       13 C1     2pz       -0.0000   -0.1598   -0.0000   -0.1066   -0.3709   -0.0011   -0.2333    0.0000
       14 C1     *pz        0.0000    0.0591   -0.0000   -0.4772   -0.6934   -0.6881   -1.2431   -0.0000
       15 C1     *d2-      -0.0647    0.0000   -0.0205   -0.0000    0.0000    0.0000   -0.0000    0.0139
       16 C1     *d1-       0.0193   -0.0000    0.0300   -0.0000   -0.0000   -0.0000    0.0000    0.0441
       17 C1     *d0        0.0000    0.0641    0.0000   -0.0074    0.0261    0.0029    0.0434    0.0000
       18 C1     *d1+      -0.0000   -0.0376    0.0000   -0.0104   -0.0032    0.0283    0.0030    0.0000
       19 C1     *d2+      -0.0000   -0.0419    0.0000   -0.0126    0.0051    0.0037    0.0202   -0.0000
       20 O1     1s         0.0000    0.0056   -0.0000    0.0213   -0.0068    0.0259   -0.0399    0.0000
       21 O1     2s        -0.0000   -0.0327    0.0000   -0.1819    0.0470   -0.0566    0.1814   -0.0000
       22 O1     *s        -0.0000   -0.0668    0.0000   -0.5221    0.1672   -0.6508    1.1161    0.0000
       23 O1     2px       -0.0000    0.3393    0.0000    0.0460    0.0718   -0.0526   -0.3510    0.0000
       24 O1     *px       -0.0000    0.0140    0.0000   -0.0835    0.0495    0.1137   -0.6996    0.0000
       25 O1     2py       -0.5829    0.0000    0.3158   -0.0000   -0.0000   -0.0000   -0.0000    0.0705
       26 O1     *py       -0.0611    0.0000    0.1561    0.0000   -0.0000   -0.0000    0.0000    0.1205
       27 O1     2pz        0.0000    0.0189    0.0000   -0.2848    0.1671    0.1048   -0.2333    0.0000
       28 O1     *pz       -0.0000   -0.0139    0.0000   -0.2733    0.2186    0.2447   -0.2397    0.0000
       29 O1     *d2-       0.0075   -0.0000    0.0116    0.0000   -0.0000   -0.0000   -0.0000   -0.0252
       30 O1     *d1-      -0.0057    0.0000    0.0114    0.0000   -0.0000   -0.0000   -0.0000   -0.0073
       31 O1     *d0        0.0000    0.0060    0.0000   -0.0077    0.0072    0.0195    0.0093   -0.0000
       32 O1     *d1+      -0.0000    0.0048    0.0000    0.0114    0.0047    0.0004    0.0062    0.0000
       33 O1     *d2+       0.0000   -0.0060    0.0000    0.0005   -0.0003   -0.0048    0.0130    0.0000
       34 H2     1s         0.0000    0.0394   -0.0000    0.1582   -0.0438    0.2390    0.0793   -0.0000
       35 H2     *s        -0.0000    0.0434   -0.0000    1.3767   -0.4590   -0.2335    0.7208    0.0000
       36 H2     *px       -0.0000    0.0055    0.0000    0.0091   -0.0011    0.0040   -0.0060    0.0000
       37 H2     *py       -0.0169    0.0000    0.0167    0.0000    0.0000    0.0000   -0.0000   -0.0301
       38 H2     *pz       -0.0000   -0.0007    0.0000   -0.0199    0.0102    0.0082    0.0143   -0.0000
       39 O2     1s        -0.0000   -0.0031    0.0000   -0.0059   -0.0034   -0.0708   -0.0244   -0.0000
       40 O2     2s        -0.0000   -0.0217    0.0000   -0.0625    0.0014    0.1060    0.1201    0.0000
       41 O2     *s         0.0000    0.0208   -0.0000    0.0528    0.0544    1.6542    0.6621    0.0000
       42 O2     2px        0.0000    0.4432    0.0000   -0.0552   -0.0059    0.0359    0.2464   -0.0000
       43 O2     *px        0.0000    0.0292   -0.0000    0.0166    0.0306    0.3637    0.4735    0.0000
       44 O2     2py        0.6568   -0.0000    0.5047    0.0000   -0.0000   -0.0000    0.0000    0.0151
       45 O2     *py        0.0351   -0.0000    0.2633    0.0000   -0.0000    0.0000    0.0000    0.1126
       46 O2     2pz        0.0000    0.6962    0.0000   -0.0716    0.1435   -0.1715    0.0708   -0.0000
       47 O2     *pz        0.0000    0.0355    0.0000    0.0379    0.1419   -0.3673    0.0763   -0.0000
       48 O2     *d2-       0.0194   -0.0000   -0.0059    0.0000    0.0000   -0.0000    0.0000    0.0322
       49 O2     *d1-      -0.0126    0.0000    0.0058   -0.0000   -0.0000    0.0000    0.0000   -0.0198
       50 O2     *d0       -0.0000   -0.0115    0.0000    0.0020    0.0018   -0.0051    0.0130   -0.0000
       51 O2     *d1+       0.0000    0.0075    0.0000    0.0018   -0.0030   -0.0207   -0.0091   -0.0000
       52 O2     *d2+       0.0000    0.0068    0.0000   -0.0017   -0.0034    0.0183    0.0100    0.0000
--
 
 
      All orbitals with orbital energies smaller than  E(LUMO)+0.5 are printed
 
++    Molecular orbitals:
      -------------------
 
      Title: UHF orbitals (beta)

      Molecular orbitals for symmetry species 1: a  
 
          Orbital            1         2         3         4         5         6         7         8         9        10    
          Energy          -20.6241  -20.5628  -11.3983   -1.4731   -1.3722   -0.8886   -0.7189   -0.7066   -0.6305   -0.5971
          Occ. No.          1.0000    1.0000    1.0000    1.0000    1.0000    1.0000    1.0000    1.0000    1.0000    1.0000
 
        1 H1     1s        -0.0006   -0.0002   -0.0002    0.0742    0.0177   -0.3969   -0.3822   -0.1348    0.0000    0.3468
        2 H1     *s         0.0004    0.0004    0.0018   -0.0395   -0.0107    0.1763    0.1332    0.0706   -0.0000   -0.0901
        3 H1     *px       -0.0002    0.0003   -0.0001    0.0004   -0.0063   -0.0012    0.0021    0.0033    0.0000    0.0105
        4 H1     *py       -0.0000    0.0000   -0.0000    0.0000    0.0000   -0.0000    0.0000    0.0000    0.0082   -0.0000
        5 H1     *pz       -0.0002   -0.0001   -0.0003    0.0113    0.0034   -0.0266   -0.0195   -0.0066    0.0000    0.0118
        6 C1     1s         0.0001    0.0002    1.0010   -0.0125   -0.0055   -0.0016    0.0061   -0.0101    0.0000   -0.0048
        7 C1     2s         0.0005    0.0004    0.0061    0.4514    0.1930   -0.5939    0.0489   -0.3498   -0.0000    0.0102
        8 C1     *s         0.0020    0.0019   -0.0030   -0.1957   -0.0720    0.1773   -0.0602    0.1564    0.0000    0.0406
        9 C1     2px        0.0003    0.0001    0.0008    0.0212   -0.3314   -0.1926    0.2776    0.3393    0.0000    0.2962
       10 C1     *px        0.0011   -0.0014   -0.0004   -0.0128    0.1367    0.0608   -0.1002   -0.1374   -0.0000   -0.1793
       11 C1     2py       -0.0000    0.0000   -0.0000   -0.0000    0.0000   -0.0000    0.0000    0.0000    0.4306   -0.0000
       12 C1     *py        0.0000   -0.0000    0.0000   -0.0000   -0.0000    0.0000   -0.0000   -0.0000   -0.0495    0.0000
       13 C1     2pz        0.0001   -0.0002    0.0010    0.1498    0.0950    0.2141    0.5023   -0.0662   -0.0000   -0.3341
       14 C1     *pz        0.0008    0.0015    0.0012   -0.0628   -0.0420   -0.0426   -0.1357    0.0690    0.0000    0.1308
       15 C1     *d2-       0.0000   -0.0000    0.0000    0.0000   -0.0000    0.0000    0.0000   -0.0000    0.0069    0.0000
       16 C1     *d1-      -0.0000    0.0000   -0.0000   -0.0000    0.0000   -0.0000    0.0000    0.0000    0.0292   -0.0000
       17 C1     *d0        0.0004    0.0002    0.0003   -0.0123    0.0045    0.0094    0.0050   -0.0196    0.0000    0.0234
       18 C1     *d1+      -0.0002    0.0007   -0.0003    0.0011   -0.0457   -0.0042    0.0146    0.0039    0.0000    0.0382
       19 C1     *d2+      -0.0001   -0.0003    0.0010    0.0272    0.0043   -0.0143    0.0089    0.0121   -0.0000   -0.0159
       20 O1     1s         1.0007    0.0003    0.0002   -0.0078    0.0045    0.0012    0.0002    0.0016   -0.0000   -0.0008
       21 O1     2s         0.0035    0.0000    0.0014    0.6621   -0.5353    0.1580   -0.1662    0.1722   -0.0000   -0.2214
       22 O1     *s        -0.0046   -0.0005   -0.0029   -0.0609    0.0476   -0.0196   -0.0432    0.0492   -0.0000   -0.0976
       23 O1     2px       -0.0020    0.0001   -0.0003   -0.1235    0.0414    0.2598   -0.5305    0.0794   -0.0000   -0.4043
       24 O1     *px        0.0025    0.0003    0.0017    0.0244   -0.0162   -0.0169    0.0211    0.0181   -0.0000   -0.0169
       25 O1     2py        0.0000    0.0000    0.0000    0.0000    0.0000   -0.0000    0.0000    0.0000    0.6764   -0.0000
       26 O1     *py        0.0000    0.0000    0.0000    0.0000    0.0000    0.0000    0.0000   -0.0000    0.0129   -0.0000
       27 O1     2pz        0.0012    0.0000   -0.0001    0.0243   -0.0258    0.4153   -0.0469   -0.4666    0.0000    0.4306
       28 O1     *pz       -0.0004   -0.0007    0.0000   -0.0245    0.0259   -0.0782    0.0174    0.0326   -0.0000   -0.0388
       29 O1     *d2-      -0.0000   -0.0000   -0.0000   -0.0000   -0.0000    0.0000   -0.0000   -0.0000   -0.0204    0.0000
       30 O1     *d1-       0.0000    0.0000    0.0000    0.0000    0.0000   -0.0000    0.0000    0.0000    0.0022   -0.0000
       31 O1     *d0        0.0001    0.0001   -0.0001   -0.0022   -0.0028    0.0118   -0.0130   -0.0075    0.0000    0.0065
       32 O1     *d1+      -0.0001    0.0001   -0.0001    0.0027   -0.0028   -0.0126   -0.0021    0.0112   -0.0000   -0.0062
       33 O1     *d2+      -0.0001   -0.0001   -0.0003    0.0087   -0.0011   -0.0100    0.0157   -0.0019    0.0000    0.0069
       34 H2     1s         0.0001    0.0005    0.0009    0.2087   -0.1828    0.4058   -0.0974   -0.3639    0.0000    0.3735
       35 H2     *s        -0.0001   -0.0003   -0.0005   -0.1050    0.0896   -0.1653    0.0174    0.1503   -0.0000   -0.1344
       36 H2     *px       -0.0001    0.0001   -0.0002   -0.0000   -0.0017    0.0056   -0.0183    0.0019   -0.0000   -0.0081
       37 H2     *py        0.0000    0.0000    0.0000    0.0000    0.0000   -0.0000    0.0000    0.0000    0.0207   -0.0000
       38 H2     *pz        0.0006   -0.0001   -0.0003   -0.0286    0.0237   -0.0367    0.0057    0.0250   -0.0000   -0.0255
       39 O2     1s        -0.0003    1.0008   -0.0002   -0.0059   -0.0107   -0.0002    0.0017   -0.0003    0.0000    0.0038
       40 O2     2s         0.0000    0.0035    0.0010    0.4305    0.6772    0.2436   -0.0436    0.3668    0.0000    0.1396
       41 O2     *s        -0.0004   -0.0052   -0.0021   -0.0466   -0.0590    0.0174   -0.0231    0.0943    0.0000    0.0422
       42 O2     2px       -0.0001    0.0023    0.0006    0.1157    0.1198   -0.0727    0.2683   -0.4273   -0.0000   -0.4274
       43 O2     *px       -0.0004   -0.0024   -0.0013   -0.0272   -0.0382   -0.0015   -0.0127    0.0192    0.0000    0.0217
       44 O2     2py       -0.0000    0.0000   -0.0000   -0.0000    0.0000   -0.0000   -0.0000    0.0000    0.3742   -0.0000
       45 O2     *py       -0.0000   -0.0000   -0.0000   -0.0000   -0.0000   -0.0000   -0.0000   -0.0000   -0.0090    0.0000
       46 O2     2pz        0.0001   -0.0014   -0.0003   -0.0576   -0.0970    0.1094    0.2641    0.3384    0.0000    0.2477
       47 O2     *pz       -0.0003    0.0015    0.0005    0.0194    0.0278   -0.0087   -0.0079   -0.0204   -0.0000   -0.0017
       48 O2     *d2-      -0.0000    0.0000   -0.0000   -0.0000    0.0000   -0.0000   -0.0000    0.0000    0.0162   -0.0000
       49 O2     *d1-       0.0000   -0.0000    0.0000    0.0000   -0.0000    0.0000   -0.0000   -0.0000   -0.0106    0.0000
       50 O2     *d0        0.0001    0.0001   -0.0000   -0.0034    0.0019    0.0000   -0.0142   -0.0021    0.0000    0.0042
       51 O2     *d1+      -0.0000   -0.0001   -0.0003   -0.0077   -0.0108    0.0047    0.0043    0.0185    0.0000    0.0136
       52 O2     *d2+      -0.0001    0.0002    0.0001    0.0081    0.0067   -0.0012    0.0095   -0.0104   -0.0000   -0.0119
 
          Orbital           11        12        13        14        15        16        17        18    
          Energy           -0.4869   -0.4646    0.1755    0.1850    0.2162    0.4033    0.4446    0.6522
          Occ. No.          1.0000    1.0000    0.0000    0.0000    0.0000    0.0000    0.0000    0.0000
 
        1 H1     1s         0.0000    0.3360   -0.0000   -0.1426    0.0449    0.1572    0.3914    0.0000
        2 H1     *s        -0.0000   -0.0465   -0.0000   -0.8551   -2.0970   -0.2580   -0.6604   -0.0000
        3 H1     *px       -0.0000   -0.0038    0.0000    0.0132   -0.0051    0.0288   -0.0124   -0.0000
        4 H1     *py        0.0056   -0.0000   -0.0336   -0.0000    0.0000   -0.0000   -0.0000    0.0323
        5 H1     *pz        0.0000    0.0045   -0.0000   -0.0072   -0.0256   -0.0010   -0.0145   -0.0000
        6 C1     1s         0.0000   -0.0014    0.0000   -0.0090   -0.0400    0.0375    0.1097    0.0000
        7 C1     2s         0.0000    0.0494    0.0000    0.1146    0.1824    0.0775    0.0595    0.0000
        8 C1     *s        -0.0000    0.0208    0.0000    0.2831    1.4949   -0.9352   -2.1651    0.0000
        9 C1     2px        0.0000   -0.0324    0.0000    0.0863   -0.0052    0.1668   -0.2463    0.0000
       10 C1     *px        0.0000    0.0584    0.0000   -0.1534    0.0471    1.8207   -0.8453   -0.0000
       11 C1     2py        0.2692   -0.0000   -0.7081   -0.0000    0.0000   -0.0000   -0.0000    1.5024
       12 C1     *py       -0.0210    0.0000   -0.4154   -0.0000    0.0000    0.0000   -0.0000   -1.8754
       13 C1     2pz       -0.0000   -0.1598   -0.0000   -0.1066   -0.3709   -0.0011   -0.2333    0.0000
       14 C1     *pz        0.0000    0.0591   -0.0000   -0.4772   -0.6934   -0.6881   -1.2431   -0.0000
       15 C1     *d2-      -0.0647    0.0000   -0.0205   -0.0000    0.0000    0.0000   -0.0000    0.0139
       16 C1     *d1-       0.0193   -0.0000    0.0300   -0.0000   -0.0000   -0.0000    0.0000    0.0441
       17 C1     *d0        0.0000    0.0641    0.0000   -0.0074    0.0261    0.0029    0.0434    0.0000
       18 C1     *d1+      -0.0000   -0.0376    0.0000   -0.0104   -0.0032    0.0283    0.0030    0.0000
       19 C1     *d2+      -0.0000   -0.0419    0.0000   -0.0126    0.0051    0.0037    0.0202   -0.0000
       20 O1     1s         0.0000    0.0056   -0.0000    0.0213   -0.0068    0.0259   -0.0399    0.0000
       21 O1     2s        -0.0000   -0.0327    0.0000   -0.1819    0.0470   -0.0566    0.1814   -0.0000
       22 O1     *s        -0.0000   -0.0668    0.0000   -0.5221    0.1672   -0.6508    1.1161    0.0000
       23 O1     2px       -0.0000    0.3393    0.0000    0.0460    0.0718   -0.0526   -0.3510    0.0000
       24 O1     *px       -0.0000    0.0140    0.0000   -0.0835    0.0495    0.1137   -0.6996    0.0000
       25 O1     2py       -0.5829    0.0000    0.3158   -0.0000   -0.0000   -0.0000   -0.0000    0.0705
       26 O1     *py       -0.0611    0.0000    0.1561    0.0000   -0.0000   -0.0000    0.0000    0.1205
       27 O1     2pz        0.0000    0.0189    0.0000   -0.2848    0.1671    0.1048   -0.2333    0.0000
       28 O1     *pz       -0.0000   -0.0139    0.0000   -0.2733    0.2186    0.2447   -0.2397    0.0000
       29 O1     *d2-       0.0075   -0.0000    0.0116    0.0000   -0.0000   -0.0000   -0.0000   -0.0252
       30 O1     *d1-      -0.0057    0.0000    0.0114    0.0000   -0.0000   -0.0000   -0.0000   -0.0073
       31 O1     *d0        0.0000    0.0060    0.0000   -0.0077    0.0072    0.0195    0.0093   -0.0000
       32 O1     *d1+      -0.0000    0.0048    0.0000    0.0114    0.0047    0.0004    0.0062    0.0000
       33 O1     *d2+       0.0000   -0.0060    0.0000    0.0005   -0.0003   -0.0048    0.0130    0.0000
       34 H2     1s         0.0000    0.0394   -0.0000    0.1582   -0.0438    0.2390    0.0793   -0.0000
       35 H2     *s        -0.0000    0.0434   -0.0000    1.3767   -0.4590   -0.2335    0.7208    0.0000
       36 H2     *px       -0.0000    0.0055    0.0000    0.0091   -0.0011    0.0040   -0.0060    0.0000
       37 H2     *py       -0.0169    0.0000    0.0167    0.0000    0.0000    0.0000   -0.0000   -0.0301
       38 H2     *pz       -0.0000   -0.0007    0.0000   -0.0199    0.0102    0.0082    0.0143   -0.0000
       39 O2     1s        -0.0000   -0.0031    0.0000   -0.0059   -0.0034   -0.0708   -0.0244   -0.0000
       40 O2     2s        -0.0000   -0.0217    0.0000   -0.0625    0.0014    0.1060    0.1201    0.0000
       41 O2     *s         0.0000    0.0208   -0.0000    0.0528    0.0544    1.6542    0.6621    0.0000
       42 O2     2px        0.0000    0.4432    0.0000   -0.0552   -0.0059    0.0359    0.2464   -0.0000
       43 O2     *px        0.0000    0.0292   -0.0000    0.0166    0.0306    0.3637    0.4735    0.0000
       44 O2     2py        0.6568   -0.0000    0.5047    0.0000   -0.0000   -0.0000    0.0000    0.0151
       45 O2     *py        0.0351   -0.0000    0.2633    0.0000   -0.0000    0.0000    0.0000    0.1126
       46 O2     2pz        0.0000    0.6962    0.0000   -0.0716    0.1435   -0.1715    0.0708   -0.0000
       47 O2     *pz        0.0000    0.0355    0.0000    0.0379    0.1419   -0.3673    0.0763   -0.0000
       48 O2     *d2-       0.0194   -0.0000   -0.0059    0.0000    0.0000   -0.0000    0.0000    0.0322
       49 O2     *d1-      -0.0126    0.0000    0.0058   -0.0000   -0.0000    0.0000    0.0000   -0.0198
       50 O2     *d0       -0.0000   -0.0115    0.0000    0.0020    0.0018   -0.0051    0.0130   -0.0000
       51 O2     *d1+       0.0000    0.0075    0.0000    0.0018   -0.0030   -0.0207   -0.0091   -0.0000
       52 O2     *d2+       0.0000    0.0068    0.0000   -0.0017   -0.0034    0.0183    0.0100    0.0000
--
 
 
++    Molecular charges:
      ------------------
 
      Mulliken charges per centre and basis function type
      ---------------------------------------------------
 
                            H1                      C1                      O1                      H2                      O2    
                     alpha        beta       alpha        beta       alpha        beta       alpha        beta       alpha        beta
      1s           0.6441      0.6441      1.0010      1.0010      1.0007      1.0007      0.5172      0.5172      1.0008      1.0008
      2s           0.0000      0.0000      0.7288      0.7288      0.9077      0.9077      0.0000      0.0000      0.9124      0.9124
      2px          0.0000      0.0000      0.4674      0.4674      0.7554      0.7554      0.0000      0.0000      0.7706      0.7706
      2pz          0.0000      0.0000      0.5866      0.5866      0.7150      0.7150      0.0000      0.0000      0.8334      0.8334
      2py          0.0000      0.0000      0.3708      0.3708      0.8734      0.8734      0.0000      0.0000      0.6876      0.6876
      *s          -0.1878     -0.1878     -0.2280     -0.2280     -0.0555     -0.0555     -0.1528     -0.1528     -0.0316     -0.0316
      *px          0.0010      0.0010     -0.0944     -0.0944     -0.0127     -0.0127      0.0064      0.0064     -0.0198     -0.0198
      *pz          0.0125      0.0125     -0.1263     -0.1263     -0.0789     -0.0789      0.0247      0.0247     -0.0000     -0.0000
      *py          0.0014      0.0014     -0.0374     -0.0374      0.0357      0.0357      0.0088      0.0088      0.0189      0.0189
      *d2+         0.0000      0.0000      0.0214      0.0214      0.0024      0.0024      0.0000      0.0000      0.0023      0.0023
      *d1+         0.0000      0.0000      0.0309      0.0309      0.0015      0.0015      0.0000      0.0000      0.0038      0.0038
      *d0          0.0000      0.0000      0.0355      0.0355      0.0029      0.0029      0.0000      0.0000      0.0014      0.0014
      *d1-         0.0000      0.0000      0.0068      0.0068      0.0001      0.0001      0.0000      0.0000      0.0011      0.0011
      *d2-         0.0000      0.0000      0.0291      0.0291      0.0013      0.0013      0.0000      0.0000      0.0024      0.0024
      Total        0.4712      0.4712      2.7922      2.7922      4.1490      4.1490      0.4043      0.4043      4.1833      4.1833
      Total              0.9424                  5.5844                  8.2980                  0.8086                  8.3666
 
      Charge            0.0576                  0.4156                 -0.2980                  0.1914                 -0.3666
 
      Total electronic charge=   24.000000
 
      Total            charge=   -0.000000
--
 
 
++    Molecular orbitals:
      -------------------
 
      Title: Natural orbitals

      Molecular orbitals for symmetry species 1: a  
 
          Orbital            1         2         3         4         5         6         7         8         9        10    
          Energy          -20.6241  -20.5628  -11.3983   -1.4731   -1.3722   -0.8886   -0.7189   -0.7057   -0.5642   -0.5972
          Occ. No.          2.0000    2.0000    2.0000    2.0000    2.0000    2.0000    2.0000    2.0000    2.0000    2.0000
 
        1 H1     1s        -0.0006   -0.0002    0.0002   -0.0742    0.0177    0.3969   -0.3822   -0.1327    0.0401   -0.3487
        2 H1     *s         0.0004    0.0004   -0.0018    0.0395   -0.0107   -0.1763    0.1332    0.0703   -0.0070    0.0904
        3 H1     *px       -0.0002    0.0003    0.0001   -0.0004   -0.0063    0.0012    0.0021    0.0033   -0.0018   -0.0104
        4 H1     *py       -0.0000    0.0000    0.0000    0.0000    0.0000    0.0000    0.0000    0.0009    0.0096   -0.0008
        5 H1     *pz       -0.0002   -0.0001    0.0003   -0.0113    0.0034    0.0266   -0.0195   -0.0066    0.0004   -0.0118
        6 C1     1s         0.0001    0.0002   -1.0010    0.0125   -0.0055    0.0016    0.0061   -0.0100    0.0010    0.0047
        7 C1     2s         0.0005    0.0004   -0.0061   -0.4514    0.1930    0.5939    0.0489   -0.3477    0.0387   -0.0120
        8 C1     *s         0.0020    0.0019    0.0030    0.1957   -0.0720   -0.1773   -0.0602    0.1557   -0.0138   -0.0399
        9 C1     2px        0.0003    0.0001   -0.0008   -0.0212   -0.3314    0.1926    0.2775    0.3362   -0.0600   -0.2935
       10 C1     *px        0.0011   -0.0014    0.0004    0.0128    0.1367   -0.0608   -0.1002   -0.1355    0.0364    0.1777
       11 C1     2py       -0.0000    0.0000    0.0000    0.0000    0.0000    0.0000    0.0010    0.0480    0.4894   -0.0425
       12 C1     *py        0.0000   -0.0000   -0.0000   -0.0000   -0.0000   -0.0000   -0.0001   -0.0052   -0.0496    0.0046
       13 C1     2pz        0.0001   -0.0002   -0.0010   -0.1498    0.0950   -0.2141    0.5023   -0.0659    0.0056    0.3339
       14 C1     *pz        0.0008    0.0015   -0.0012    0.0628   -0.0420    0.0426   -0.1357    0.0687   -0.0067   -0.1305
       15 C1     *d2-       0.0000   -0.0000   -0.0000   -0.0000   -0.0000   -0.0000   -0.0000   -0.0016   -0.0376    0.0014
       16 C1     *d1-      -0.0000    0.0000    0.0000    0.0000    0.0000    0.0000    0.0001    0.0033    0.0339   -0.0029
       17 C1     *d0        0.0004    0.0002   -0.0003    0.0123    0.0045   -0.0094    0.0051   -0.0191    0.0104   -0.0239
       18 C1     *d1+      -0.0002    0.0007    0.0003   -0.0011   -0.0457    0.0042    0.0146    0.0034   -0.0096   -0.0378
       19 C1     *d2+      -0.0001   -0.0003   -0.0010   -0.0272    0.0043    0.0143    0.0089    0.0118   -0.0067    0.0162
       20 O1     1s         1.0007    0.0003   -0.0002    0.0078    0.0045   -0.0012    0.0002    0.0017    0.0008    0.0008
       21 O1     2s         0.0035    0.0000   -0.0014   -0.6621   -0.5353   -0.1580   -0.1662    0.1720   -0.0029    0.2215
       22 O1     *s        -0.0046   -0.0005    0.0029    0.0609    0.0476    0.0196   -0.0432    0.0489   -0.0075    0.0980
       23 O1     2px       -0.0020    0.0001    0.0003    0.1235    0.0414   -0.2598   -0.5304    0.0837    0.0815    0.4005
       24 O1     *px        0.0025    0.0003   -0.0017   -0.0244   -0.0162    0.0169    0.0211    0.0182    0.0020    0.0168
       25 O1     2py        0.0000    0.0000   -0.0000   -0.0000    0.0000    0.0000    0.0008    0.0409    0.1063   -0.0362
       26 O1     *py        0.0000   -0.0000   -0.0000   -0.0000   -0.0000   -0.0000   -0.0000   -0.0009   -0.0309    0.0008
       27 O1     2pz        0.0012    0.0000    0.0001   -0.0243   -0.0258   -0.4153   -0.0469   -0.4660    0.0109   -0.4311
       28 O1     *pz       -0.0004   -0.0007   -0.0000    0.0245    0.0259    0.0782    0.0174    0.0325   -0.0021    0.0389
       29 O1     *d2-      -0.0000   -0.0000    0.0000    0.0000   -0.0000   -0.0000   -0.0000   -0.0016   -0.0098    0.0014
       30 O1     *d1-       0.0000    0.0000   -0.0000   -0.0000   -0.0000   -0.0000    0.0000    0.0000   -0.0021   -0.0000
       31 O1     *d0        0.0001    0.0001    0.0001    0.0022   -0.0028   -0.0118   -0.0130   -0.0074    0.0012   -0.0066
       32 O1     *d1+      -0.0001    0.0001    0.0001   -0.0027   -0.0028    0.0126   -0.0021    0.0112    0.0003    0.0062
       33 O1     *d2+      -0.0001   -0.0001    0.0003   -0.0087   -0.0011    0.0100    0.0157   -0.0019   -0.0014   -0.0068
       34 H2     1s         0.0001    0.0005   -0.0009   -0.2087   -0.1828   -0.4058   -0.0974   -0.3634    0.0096   -0.3740
       35 H2     *s        -0.0001   -0.0003    0.0005    0.1050    0.0896    0.1653    0.0174    0.1505    0.0042    0.1342
       36 H2     *px       -0.0001    0.0001    0.0002    0.0000   -0.0017   -0.0056   -0.0183    0.0020    0.0014    0.0080
       37 H2     *py        0.0000    0.0000   -0.0000   -0.0000    0.0000    0.0000    0.0000    0.0013    0.0039   -0.0011
       38 H2     *pz        0.0006   -0.0001    0.0003    0.0286    0.0237    0.0367    0.0057    0.0250   -0.0003    0.0255
       39 O2     1s        -0.0003    1.0008    0.0002    0.0059   -0.0107    0.0002    0.0017   -0.0004   -0.0008   -0.0038
       40 O2     2s         0.0000    0.0035   -0.0010   -0.4305    0.6772   -0.2436   -0.0437    0.3643   -0.0476   -0.1374
       41 O2     *s        -0.0004   -0.0052    0.0021    0.0466   -0.0590   -0.0174   -0.0231    0.0939   -0.0084   -0.0418
       42 O2     2px       -0.0001    0.0023   -0.0006   -0.1157    0.1198    0.0727    0.2684   -0.4197    0.1444    0.4207
       43 O2     *px       -0.0004   -0.0024    0.0013    0.0272   -0.0382    0.0015   -0.0127    0.0193    0.0013   -0.0217
       44 O2     2py       -0.0000    0.0000    0.0000    0.0000    0.0000    0.0000    0.0011    0.0563    0.7037   -0.0498
       45 O2     *py       -0.0000    0.0000    0.0000    0.0000    0.0000    0.0000    0.0000    0.0004    0.0166   -0.0004
       46 O2     2pz        0.0001   -0.0014    0.0003    0.0576   -0.0970   -0.1094    0.2642    0.3417    0.0630   -0.2506
       47 O2     *pz       -0.0003    0.0015   -0.0005   -0.0194    0.0278    0.0087   -0.0079   -0.0200    0.0078    0.0013
       48 O2     *d2-      -0.0000    0.0000    0.0000    0.0000    0.0000    0.0000    0.0000    0.0021    0.0246   -0.0019
       49 O2     *d1-       0.0000   -0.0000   -0.0000   -0.0000   -0.0000   -0.0000   -0.0000   -0.0014   -0.0160    0.0012
       50 O2     *d0        0.0001    0.0001    0.0000    0.0034    0.0019   -0.0000   -0.0142   -0.0022   -0.0020   -0.0041
       51 O2     *d1+      -0.0000   -0.0001    0.0003    0.0077   -0.0108   -0.0047    0.0043    0.0184   -0.0015   -0.0135
       52 O2     *d2+      -0.0001    0.0002   -0.0001   -0.0081    0.0067    0.0012    0.0095   -0.0103    0.0030    0.0118
 
          Orbital           11        12        13        14        15        16        17        18        19        20    
          Energy           -0.5495   -0.4691    0.1755    0.1850    0.2162    0.4033    0.4446    0.6522    0.6882    0.7573
          Occ. No.          2.0000    2.0000    0.0000    0.0000    0.0000    0.0000    0.0000    0.0000    0.0000    0.0000
 
        1 H1     1s        -0.0153    0.3322   -0.0000   -0.1426    0.0448    0.1572    0.3914    0.0000    0.3092   -1.3213
        2 H1     *s         0.0027   -0.0458    0.0000   -0.8550   -2.0970   -0.2580   -0.6604    0.0000   -0.8193    1.0579
        3 H1     *px        0.0007   -0.0037    0.0000    0.0132   -0.0051    0.0288   -0.0124    0.0000    0.0221    0.0254
        4 H1     *py       -0.0012   -0.0017   -0.0336    0.0000    0.0000    0.0000   -0.0000    0.0323   -0.0000    0.0000
        5 H1     *pz       -0.0002    0.0045    0.0000   -0.0072   -0.0256   -0.0010   -0.0145    0.0000   -0.1121    0.1469
        6 C1     1s        -0.0004   -0.0015   -0.0000   -0.0090   -0.0400    0.0375    0.1097    0.0000    0.2190    0.0917
        7 C1     2s        -0.0148    0.0458   -0.0000    0.1146    0.1824    0.0775    0.0595    0.0000    1.0799    0.6114
        8 C1     *s         0.0053    0.0221    0.0000    0.2831    1.4949   -0.9352   -2.1651   -0.0000   -1.3415   -0.9607
        9 C1     2px        0.0229   -0.0267   -0.0000    0.0862   -0.0052    0.1668   -0.2463    0.0000    0.8742    0.5882
       10 C1     *px       -0.0139    0.0549   -0.0000   -0.1534    0.0472    1.8207   -0.8453   -0.0000   -0.9843   -0.8674
       11 C1     2py       -0.0821   -0.0871   -0.7081    0.0000   -0.0000    0.0000    0.0000    1.5024   -0.0000   -0.0000
       12 C1     *py        0.0169    0.0094   -0.4154    0.0000   -0.0000   -0.0000    0.0000   -1.8754   -0.0000   -0.0000
       13 C1     2pz       -0.0021   -0.1604   -0.0000   -0.1066   -0.3709   -0.0011   -0.2333   -0.0000    0.8972   -0.0712
       14 C1     *pz        0.0026    0.0597    0.0000   -0.4772   -0.6934   -0.6881   -1.2432    0.0000   -1.6286   -0.6789
       15 C1     *d2-      -0.0530    0.0029   -0.0205    0.0000    0.0000   -0.0000    0.0000    0.0139    0.0000    0.0000
       16 C1     *d1-      -0.0048   -0.0060    0.0300   -0.0000    0.0000   -0.0000   -0.0000    0.0441    0.0000    0.0000
       17 C1     *d0       -0.0040    0.0631   -0.0000   -0.0074    0.0261    0.0029    0.0434   -0.0000    0.1537   -0.1832
       18 C1     *d1+       0.0037   -0.0367   -0.0000   -0.0104   -0.0032    0.0283    0.0030   -0.0000   -0.0228   -0.1803
       19 C1     *d2+       0.0026   -0.0413    0.0000   -0.0126    0.0051    0.0037    0.0202    0.0000   -0.1341   -0.0752
       20 O1     1s        -0.0003    0.0055    0.0000    0.0213   -0.0068    0.0259   -0.0399    0.0000   -0.0462   -0.0656
       21 O1     2s         0.0011   -0.0324   -0.0000   -0.1819    0.0470   -0.0566    0.1814    0.0000   -0.2110   -0.3791
       22 O1     *s         0.0029   -0.0661   -0.0000   -0.5221    0.1672   -0.6508    1.1162   -0.0000    0.6857    0.8194
       23 O1     2px       -0.0311    0.3315    0.0000    0.0460    0.0718   -0.0526   -0.3510    0.0000    0.2563    0.2124
       24 O1     *px       -0.0007    0.0138   -0.0000   -0.0835    0.0495    0.1136   -0.6996   -0.0000   -0.1889   -0.3289
       25 O1     2py       -0.8818   -0.0741    0.3158   -0.0000    0.0000   -0.0000    0.0000    0.0705    0.0000    0.0000
       26 O1     *py       -0.0543    0.0017    0.1561   -0.0000   -0.0000    0.0000   -0.0000    0.1205   -0.0000   -0.0000
       27 O1     2pz       -0.0041    0.0178   -0.0000   -0.2848    0.1671    0.1048   -0.2334    0.0000    0.2053   -0.0832
       28 O1     *pz        0.0008   -0.0137   -0.0000   -0.2733    0.2186    0.2447   -0.2396   -0.0000    0.1528    0.0590
       29 O1     *d2-       0.0190    0.0029    0.0116   -0.0000   -0.0000    0.0000   -0.0000   -0.0252   -0.0000   -0.0000
       30 O1     *d1-      -0.0058   -0.0000    0.0114    0.0000    0.0000   -0.0000    0.0000   -0.0073    0.0000    0.0000
       31 O1     *d0       -0.0004    0.0059    0.0000   -0.0077    0.0072    0.0195    0.0093   -0.0000   -0.0534    0.0673
       32 O1     *d1+      -0.0001    0.0048   -0.0000    0.0114    0.0047    0.0004    0.0062    0.0000    0.0457    0.0414
       33 O1     *d2+       0.0005   -0.0058   -0.0000    0.0005   -0.0003   -0.0048    0.0130    0.0000    0.0605    0.0287
       34 H2     1s        -0.0037    0.0385    0.0000    0.1582   -0.0438    0.2390    0.0794   -0.0000   -0.9616    1.0521
       35 H2     *s        -0.0016    0.0430   -0.0000    1.3767   -0.4590   -0.2335    0.7207    0.0000    1.2029   -0.8483
       36 H2     *px       -0.0005    0.0053   -0.0000    0.0091   -0.0011    0.0040   -0.0060    0.0000    0.0885    0.1173
       37 H2     *py       -0.0263   -0.0023    0.0167   -0.0000   -0.0000    0.0000    0.0000   -0.0301   -0.0000   -0.0000
       38 H2     *pz        0.0001   -0.0006    0.0000   -0.0199    0.0102    0.0082    0.0143   -0.0000   -0.0418    0.1781
       39 O2     1s         0.0003   -0.0030    0.0000   -0.0059   -0.0034   -0.0708   -0.0244    0.0000   -0.0108   -0.0066
       40 O2     2s         0.0182   -0.0172   -0.0000   -0.0625    0.0014    0.1060    0.1201    0.0000   -0.0071    0.0430
       41 O2     *s         0.0032    0.0216   -0.0000    0.0528    0.0544    1.6542    0.6621    0.0000    0.3838    0.1236
       42 O2     2px       -0.0551    0.4295    0.0000   -0.0552   -0.0059    0.0359    0.2464    0.0000   -0.1052    0.1503
       43 O2     *px       -0.0005    0.0291   -0.0000    0.0166    0.0306    0.3637    0.4735    0.0000    0.1889    0.1649
       44 O2     2py        0.2452   -0.1021    0.5047   -0.0000   -0.0000    0.0000   -0.0000    0.0151   -0.0000   -0.0000
       45 O2     *py        0.0322   -0.0007    0.2633   -0.0000    0.0000   -0.0000    0.0000    0.1126    0.0000    0.0000
       46 O2     2pz       -0.0241    0.6902   -0.0000   -0.0716    0.1435   -0.1715    0.0708   -0.0000    0.0022    0.2142
       47 O2     *pz       -0.0030    0.0347    0.0000    0.0379    0.1419   -0.3673    0.0763   -0.0000   -0.0457   -0.0340
       48 O2     *d2-       0.0039   -0.0039   -0.0059    0.0000    0.0000   -0.0000    0.0000    0.0322    0.0000    0.0000
       49 O2     *d1-      -0.0024    0.0025    0.0058   -0.0000   -0.0000    0.0000   -0.0000   -0.0198   -0.0000   -0.0000
       50 O2     *d0        0.0008   -0.0113    0.0000    0.0020    0.0018   -0.0051    0.0130    0.0000   -0.0193   -0.0049
       51 O2     *d1+       0.0006    0.0076    0.0000    0.0018   -0.0030   -0.0207   -0.0091    0.0000   -0.0001    0.0084
       52 O2     *d2+      -0.0011    0.0066   -0.0000   -0.0017   -0.0034    0.0183    0.0100   -0.0000    0.0228   -0.0085
 
          Orbital           21        22        23        24        25        26        27        28        29        30    
          Energy            0.8091    0.8891    0.9465    1.0966    1.1854    1.1979    1.2406    1.2626    1.3532    1.3542
          Occ. No.          0.0000    0.0000    0.0000    0.0000    0.0000    0.0000    0.0000    0.0000    0.0000    0.0000
 
        1 H1     1s        -1.2447   -0.2405   -0.2437    0.0464    0.0000   -0.1832    0.0016    0.1924   -0.1756   -0.0000
        2 H1     *s         0.4715   -1.5855   -0.9548    0.1090   -0.0000   -0.0912    0.0014   -0.4359   -0.4879    0.0000
        3 H1     *px       -0.0427   -0.0602    0.0906    0.1113   -0.0000    0.1066   -0.0041   -0.0514    0.0352   -0.0000
        4 H1     *py       -0.0000   -0.0001   -0.0000    0.0000   -0.2456    0.0014    0.3072   -0.0011    0.0179    0.1739
        5 H1     *pz        0.1055   -0.2366   -0.1306   -0.0065   -0.0000    0.0082    0.0002   -0.0022   -0.0072    0.0000
        6 C1     1s        -0.0092   -0.3000   -0.5640    0.3500   -0.0000   -0.0985   -0.0008   -0.1355   -0.0254   -0.0000
        7 C1     2s         0.0537   -1.2729   -2.7327    1.4296   -0.0000   -0.3687   -0.0032   -0.6671   -0.0126   -0.0000
        8 C1     *s        -0.0780    3.1293    3.9270   -0.2791    0.0000   -1.0307    0.0021    1.4106    0.2198    0.0000
        9 C1     2px       -0.4783   -0.6570    0.6773   -0.5576    0.0000   -0.5397    0.0006   -0.1216    0.2418   -0.0000
       10 C1     *px        0.7131    0.5632   -0.6995   -0.0834   -0.0000   -0.1962    0.0038    0.4029   -0.7835    0.0000
       11 C1     2py        0.0000   -0.0000   -0.0001    0.0001    0.0495    0.0003   -0.0273   -0.0000   -0.0048    0.0899
       12 C1     *py        0.0000    0.0000   -0.0000    0.0000   -0.1056    0.0000   -0.0523    0.0000   -0.0037   -0.8435
       13 C1     2pz       -0.0098    1.0677   -0.1080    0.3521   -0.0000   -0.0106   -0.0007    0.0006    0.3752   -0.0000
       14 C1     *pz       -1.2253   -2.1265   -0.5164    0.2356    0.0000   -0.7836    0.0054   -0.5093   -1.0987   -0.0000
       15 C1     *d2-      -0.0000    0.0001    0.0001   -0.0000   -0.0679    0.0002   -0.3467   -0.0002   -0.0029    0.0798
       16 C1     *d1-       0.0000   -0.0001   -0.0001    0.0001    0.3957    0.0015   -0.3957   -0.0010    0.0122   -0.5407
       17 C1     *d0       -0.1914    0.1463    0.0488   -0.0256    0.0000    0.0800    0.0007   -0.5051   -0.1138   -0.0000
       18 C1     *d1+       0.2193    0.0830   -0.2380   -0.3015   -0.0000   -0.2617    0.0006   -0.1284    0.2136    0.0000
       19 C1     *d2+      -0.0686   -0.0687    0.1360    0.2484   -0.0000   -0.3831    0.0010    0.1045    0.1427   -0.0000
       20 O1     1s         0.0346   -0.0225    0.0292    0.0415   -0.0000    0.0584    0.0003    0.0634    0.0560    0.0000
       21 O1     2s         0.2309   -0.1682    0.1221    0.1759   -0.0000    0.5087    0.0008    0.3997    0.1647    0.0000
       22 O1     *s        -0.4003    0.0138   -0.4025   -0.3414    0.0000    0.2298   -0.0059   -0.2095   -0.4115   -0.0000
       23 O1     2px       -0.4159   -0.1023   -0.2065   -0.1561    0.0000    0.9746    0.0012    0.1596    0.1475   -0.0000
       24 O1     *px        0.2081    0.0714    0.2624    0.1588   -0.0000   -2.1098   -0.0019   -0.2938    0.0656   -0.0000
       25 O1     2py       -0.0000    0.0000   -0.0000    0.0000   -1.1702    0.0000   -0.3882    0.0001   -0.0021   -0.6090
       26 O1     *py       -0.0000   -0.0000    0.0001   -0.0001    1.3550   -0.0005    0.7044    0.0002    0.0060    0.9649
       27 O1     2pz        0.4074   -0.2922    0.3160    0.2106   -0.0000    0.2646    0.0010   -0.6372    0.4957    0.0000
       28 O1     *pz       -0.0300    0.2745   -0.2212   -0.3152    0.0000   -0.7155   -0.0039    1.7638   -1.1582   -0.0000
       29 O1     *d2-       0.0000    0.0001   -0.0001    0.0002   -0.0037    0.0022    0.0602   -0.0012   -0.0026    0.0469
       30 O1     *d1-      -0.0000    0.0001    0.0002   -0.0001    0.0256   -0.0006    0.0012    0.0003    0.0011    0.0075
       31 O1     *d0       -0.0630    0.0427   -0.0142    0.0039    0.0000   -0.0168   -0.0005   -0.0033    0.0249    0.0000
       32 O1     *d1+      -0.0006   -0.0325    0.0102    0.0174   -0.0000    0.0064   -0.0000    0.0463   -0.0267    0.0000
       33 O1     *d2+      -0.0277   -0.0125   -0.0234   -0.0055    0.0000   -0.0189   -0.0006   -0.0538    0.0503   -0.0000
       34 H2     1s        -1.1365    0.7750   -0.1848    0.1491    0.0000   -0.2909    0.0042   -1.1749    1.1189    0.0000
       35 H2     *s         1.3650   -0.6262    0.2660   -0.0114   -0.0000    1.0271   -0.0027    0.2589   -0.2596    0.0000
       36 H2     *px        0.0585   -0.0408    0.0231    0.1319   -0.0000    0.0221    0.0047    0.2827   -0.1438    0.0000
       37 H2     *py        0.0000   -0.0000   -0.0001    0.0001    0.1237    0.0004    0.0097   -0.0001   -0.0044    0.1197
       38 H2     *pz       -0.2071    0.1405   -0.1495   -0.0848    0.0000   -0.1376   -0.0008    0.2548   -0.2293   -0.0000
       39 O2     1s        -0.0207   -0.0086    0.0381   -0.0083    0.0000   -0.0185   -0.0003    0.0513   -0.0334   -0.0000
       40 O2     2s        -0.0715   -0.1674    0.3004   -0.3049    0.0000   -0.0729   -0.0014    0.2661   -0.1690   -0.0000
       41 O2     *s         0.6946    0.0373   -0.6511   -0.8230   -0.0000    0.3595    0.0022   -0.3224    0.1889    0.0000
       42 O2     2px       -0.0258   -0.0831    0.5115    0.6761   -0.0000   -0.1068    0.0008   -0.2066   -0.6680    0.0000
       43 O2     *px        0.2204   -0.2709   -0.2181   -1.6138    0.0000    0.1178   -0.0013    0.2668    1.1056    0.0000
       44 O2     2py        0.0000    0.0000   -0.0000    0.0000    0.0747    0.0001    0.9618   -0.0000   -0.0051   -0.9008
       45 O2     *py       -0.0000    0.0001    0.0001   -0.0001   -0.2435   -0.0005   -1.1552    0.0002    0.0046    1.5513
       46 O2     2pz        0.3269    0.2469   -0.1802   -0.4143   -0.0000    0.0604   -0.0000   -0.5186   -0.8451    0.0000
       47 O2     *pz       -0.0403    0.1835    0.0687    1.0311   -0.0000   -0.1181   -0.0019    0.9455    1.3767    0.0000
       48 O2     *d2-      -0.0000    0.0003    0.0002   -0.0001    0.0268   -0.0008   -0.0095    0.0005    0.0030   -0.0578
       49 O2     *d1-       0.0000    0.0001   -0.0002    0.0002    0.0146    0.0003   -0.0303    0.0003    0.0016    0.0110
       50 O2     *d0        0.0127   -0.0088   -0.0025   -0.0003   -0.0000   -0.0052   -0.0001    0.0030    0.0317    0.0000
       51 O2     *d1+      -0.0386   -0.0310    0.0706   -0.0145    0.0000   -0.0159    0.0004    0.0009   -0.0248   -0.0000
       52 O2     *d2+       0.0137    0.0240   -0.0579    0.0056   -0.0000    0.0201    0.0001   -0.0268   -0.0221   -0.0000
 
          Orbital           31        32        33        34        35        36        37        38        39        40    
          Energy            1.4119    1.6009    1.6442    3.1441    1.7776    1.9182    1.9902    2.9676    2.2938    3.6612
          Occ. No.          0.0000    0.0000    0.0000    0.0000    0.0000    0.0000    0.0000    0.0000    0.0000    0.0000
 
        1 H1     1s        -0.0000    0.0000   -1.5534   -0.2571   -0.5281    0.5019   -0.2639    0.2434    0.5814    0.1107
        2 H1     *s         0.0000   -0.0000    0.2015    0.0516    0.1331   -0.5630    0.0149   -0.1373    0.0724   -0.0655
        3 H1     *px       -0.0000    0.0000   -0.1540   -0.0041    0.8692    0.3123   -0.0854    0.2359    0.0781    0.2452
        4 H1     *py        0.0426    0.2613    0.0004   -0.1754   -0.0334    0.0010   -0.0355    0.0291   -0.0226    0.0192
        5 H1     *pz        0.0000   -0.0000    0.1406   -0.0212    0.1036   -0.3431    0.0802    0.2780    0.2774    0.1640
        6 C1     1s        -0.0000    0.0000   -0.0936    0.1113   -0.1231    0.1780   -0.1426   -0.0839   -0.1607   -0.0123
        7 C1     2s        -0.0000    0.0000   -0.3418    0.4937   -0.3594    0.7485   -0.7056   -0.6774   -0.6453   -0.0374
        8 C1     *s         0.0000   -0.0000    1.5500   -0.3226    0.7784   -0.5667   -1.0661   -1.4362    1.5044   -0.2899
        9 C1     2px       -0.0000    0.0000    0.2139    0.1536   -0.2056    0.4933    0.5873   -0.9580   -0.0787    0.5701
       10 C1     *px        0.0000   -0.0000    0.3133   -0.4654   -0.0004    0.2718    0.9096   -0.5381    0.1534   -0.3223
       11 C1     2py       -0.0897    0.0088   -0.0000    0.0500    0.0080   -0.0001    0.0083   -0.0078    0.0053   -0.0051
       12 C1     *py       -0.0932    0.1016   -0.0001    0.0384    0.0064   -0.0002    0.0068   -0.0062    0.0043   -0.0041
       13 C1     2pz       -0.0000    0.0000    0.0890    0.0132    0.1736   -0.1089   -0.3979   -0.1944    0.3671   -0.0334
       14 C1     *pz       -0.0000    0.0000   -1.3877   -0.2360   -0.3743   -0.2262   -0.7250   -0.7604    0.9848   -0.3673
       15 C1     *d2-       0.7604    0.6166   -0.0004    0.0323    0.0031   -0.0011    0.0048   -0.0056    0.0030   -0.0037
       16 C1     *d1-      -0.1270    0.1140   -0.0005   -0.1176   -0.0260   -0.0013   -0.0246    0.0187   -0.0157    0.0123
       17 C1     *d0       -0.0000    0.0000    0.4086    0.0684    0.2595   -0.5964    0.1841   -0.0774   -0.1507   -0.1918
       18 C1     *d1+       0.0000   -0.0000    0.1130   -0.4075    0.1343    0.3923    0.7470   -0.3092    0.3328    0.2523
       19 C1     *d2+      -0.0000    0.0000    0.4363   -0.1613    0.3660   -0.0021   -0.4656   -0.7525    0.4992   -0.0894
       20 O1     1s         0.0000   -0.0000   -0.1028    0.0898    0.1283    0.1797    0.1243   -0.4360    0.2304   -0.0672
       21 O1     2s         0.0000   -0.0000   -0.4871    0.3610    0.5851    0.7373    0.5561   -1.5596    1.0099   -0.1268
       22 O1     *s        -0.0000    0.0000    0.4692   -0.4156   -0.8233   -1.2295   -0.7697    4.1562   -1.2768    1.4622
       23 O1     2px       -0.0000    0.0000    0.5012   -0.3628   -0.0726    0.2328    0.1789   -0.3689    0.3070   -0.1584
       24 O1     *px       -0.0000    0.0000   -0.2182    0.3509    0.2676    0.3667   -0.4052   -0.8529    0.0308    0.2096
       25 O1     2py       -0.3211    0.0336   -0.0004    0.0206    0.0025   -0.0013    0.0044   -0.0040    0.0028   -0.0026
       26 O1     *py        0.4113   -0.6639    0.0008   -0.0627   -0.0074    0.0023   -0.0108    0.0110   -0.0069    0.0073
       27 O1     2pz        0.0000   -0.0000   -0.3002   -0.1421   -0.3343    0.0588   -0.0723    0.3190    0.9944    0.5443
       28 O1     *pz       -0.0000    0.0000    1.2567   -0.2519    0.4596    0.3164   -0.0184   -0.1018   -0.6855    0.8197
       29 O1     *d2-      -0.0489   -0.1118    0.0001    0.0395    0.0006    0.0002    0.0004   -0.0049    0.0002   -0.0032
       30 O1     *d1-      -0.1197    0.0924    0.0000   -0.0142   -0.0008    0.0000   -0.0008    0.0019   -0.0005    0.0012
       31 O1     *d0       -0.0000    0.0000   -0.0293   -0.8428    0.0138   -0.0417   -0.0398   -0.0173   -0.1165    0.9034
       32 O1     *d1+       0.0000   -0.0000   -0.0535   -0.4667   -0.0035   -0.0293   -0.0376    0.2691    0.0104   -0.5577
       33 O1     *d2+      -0.0000    0.0000    0.0094   -0.3113    0.0491    0.0629    0.0148    0.7139   -0.0180   -0.3381
       34 H2     1s        -0.0000    0.0000   -0.9159    1.1116    0.0074    0.0038    0.2573   -1.1715   -0.1623   -2.3241
       35 H2     *s         0.0000   -0.0000    0.3683   -0.5424   -0.0387    0.0358    0.0052    0.6675   -0.3666    0.8497
       36 H2     *px        0.0000   -0.0000   -0.5594    0.0363    0.1060   -0.6748    0.2818   -0.1948    0.2627   -0.1122
       37 H2     *py       -0.5521    0.8254    0.0000    0.0470    0.0071    0.0000    0.0072   -0.0072    0.0046   -0.0048
       38 H2     *pz       -0.0000    0.0000    0.1101   -0.1922   -0.0637    0.0688    0.0746    0.6237    0.9181    1.1004
       39 O2     1s        -0.0000    0.0000    0.0414   -0.0254   -0.2087   -0.1206   -0.5245   -0.0058    0.2678   -0.0286
       40 O2     2s        -0.0000    0.0000    0.2418   -0.1026   -1.0122   -0.4993   -2.1940    0.0110    1.1196   -0.0741
       41 O2     *s         0.0000   -0.0000   -0.0539   -0.0902    0.9076    1.2072    4.5898    0.3735   -2.0173    0.5728
       42 O2     2px       -0.0000    0.0000    0.2225   -0.2076   -0.4669    0.4681    0.6499   -0.0244    0.1051    0.1048
       43 O2     *px        0.0000   -0.0000   -0.3084    0.1882    0.5625   -0.1653    0.2509    0.3080   -0.4522    0.2592
       44 O2     2py        0.4001    0.3444    0.0011    0.0551    0.0120    0.0031    0.0077   -0.0068    0.0049   -0.0045
       45 O2     *py       -0.0432   -0.2138   -0.0013   -0.0513   -0.0112   -0.0038   -0.0059    0.0056   -0.0038    0.0037
       46 O2     2pz        0.0000   -0.0000   -0.3193   -0.1536    0.2660    0.2063   -0.4844   -0.3464    0.2066   -0.2270
       47 O2     *pz        0.0000   -0.0000    0.6142    0.2571   -0.1900   -0.2459   -0.1633    0.4865   -0.0971    0.2323
       48 O2     *d2-      -0.0298   -0.0201   -0.0000   -0.0364   -0.0035   -0.0000   -0.0036    0.0053   -0.0023    0.0035
       49 O2     *d1-       0.0549    0.0604   -0.0000   -0.0208   -0.0018   -0.0001   -0.0017    0.0033   -0.0011    0.0021
       50 O2     *d0        0.0000   -0.0000    0.0464    0.0282    0.0423    0.0809   -0.0065   -0.0982    0.0782   -0.1780
       51 O2     *d1+      -0.0000    0.0000    0.0312    0.0086    0.0333   -0.0596    0.0962    0.2269   -0.0247   -0.1502
       52 O2     *d2+      -0.0000    0.0000    0.0568   -0.0166    0.0105   -0.0830   -0.0320    0.0817    0.0232    0.1886
 
          Orbital           41        42        43        44        45        46        47        48        49        50    
          Energy            2.1661    2.5996    3.3925    3.7871    3.1896    3.0615    3.8050    2.6628    2.9648    3.1991
          Occ. No.          0.0000    0.0000    0.0000    0.0000    0.0000    0.0000    0.0000    0.0000    0.0000    0.0000
 
        1 H1     1s         0.0813    0.2050   -0.1329   -1.0315    0.0048   -0.9079    0.8537    2.4243    0.0003    0.0000
        2 H1     *s        -0.2615    0.1267   -0.0187    0.4710   -0.0014    0.2159   -0.3652   -0.5052    0.0002   -0.0000
        3 H1     *px        0.1358    0.5703    0.4897    0.0426   -0.0050    0.0401    0.0158    0.0134   -0.0002    0.0000
        4 H1     *py       -0.0085    0.0028    0.0099    0.0108   -0.3835   -0.0011   -0.0062    0.0060   -0.1117    0.0107
        5 H1     *pz       -0.2954    0.0227   -0.0536   -0.3344    0.0001   -0.4150    0.3095    1.4910   -0.0000   -0.0000
        6 C1     1s        -0.0639    0.0730    0.1210   -0.1208    0.0029   -0.0068   -0.4259   -0.2161   -0.0000    0.0000
        7 C1     2s        -0.1797    0.1232    0.4479   -0.6485    0.0111    0.0403   -1.9239   -1.1469   -0.0001    0.0000
        8 C1     *s        -1.4180   -0.1648   -0.2139   -0.3379   -0.0116    0.4402    0.0476   -1.0482    0.0013   -0.0000
        9 C1     2px       -0.3363    0.0016    0.0929    0.4933   -0.0031   -0.1831    0.7808    0.1416    0.0010    0.0000
       10 C1     *px       -0.4837   -0.8379   -0.4997   -0.3426   -0.0111    0.0005   -0.1141   -0.0279    0.0003   -0.0000
       11 C1     2py        0.0020   -0.0007   -0.0027   -0.0029   -0.1033    0.0003    0.0017   -0.0014    0.1339    0.1838
       12 C1     *py        0.0016   -0.0005   -0.0021   -0.0023   -0.0359    0.0002    0.0013   -0.0011    0.0380   -0.0177
       13 C1     2pz       -0.4419   -0.0949   -0.0299   -0.7159    0.0029   -0.5311   -0.4477    1.5482   -0.0002    0.0000
       14 C1     *pz       -0.4619    0.5539   -0.0973   -0.0351    0.0004   -0.0200    0.0315   -0.3294    0.0013    0.0000
       15 C1     *d2-       0.0011   -0.0004   -0.0019   -0.0021   -0.2520    0.0001    0.0012   -0.0008    0.0555   -0.0400
       16 C1     *d1-      -0.0059    0.0020    0.0064    0.0069   -0.5551   -0.0008   -0.0040    0.0041   -0.0803    0.1293
       17 C1     *d0       -0.0838    0.0105    0.0117    0.9206   -0.0025    0.3935   -0.5784   -0.9158   -0.0002    0.0000
       18 C1     *d1+      -0.0188    0.7716    0.7531    0.0480   -0.0083    0.0409    0.3325    0.0218    0.0003   -0.0000
       19 C1     *d2+       0.1772   -0.3411   -0.1032   -0.8015   -0.0046    0.1597    0.0259   -0.0613    0.0007   -0.0000
       20 O1     1s        -0.7336   -0.2183   -0.0088    0.0294   -0.0023   -0.0717   -0.1036   -0.1596    0.0001   -0.0000
       21 O1     2s        -3.1311   -1.0211   -0.0953    0.2208   -0.0097   -0.2954   -0.4708   -0.6956   -0.0000   -0.0000
       22 O1     *s         4.8082    0.8788   -0.1290    0.5168    0.0168    0.4459    0.2653    0.8254   -0.0016    0.0000
       23 O1     2px        0.3698    0.2469    0.0436   -0.3619   -0.0016    0.1219    0.2263    0.1082   -0.0004    0.0000
       24 O1     *px       -1.2554   -0.3962    0.3080    0.0381   -0.0018   -0.3185   -0.3543   -0.1705    0.0017   -0.0000
       25 O1     2py        0.0010   -0.0003   -0.0014   -0.0015   -0.0411    0.0001    0.0009   -0.0007    0.0711    0.0118
       26 O1     *py       -0.0026    0.0009    0.0038    0.0041    0.2965   -0.0003   -0.0024    0.0018   -0.1565    0.1175
       27 O1     2pz        0.3480   -0.3280   -0.0017   -0.0106    0.0002    0.0349   -0.0793   -0.1162   -0.0003   -0.0000
       28 O1     *pz       -0.1804   -0.5978   -0.4935   -0.2881   -0.0060    0.0041   -0.1288    0.0585    0.0005   -0.0000
       29 O1     *d2-       0.0001   -0.0000   -0.0017   -0.0018   -0.8470    0.0000    0.0010   -0.0001    0.4777    0.0846
       30 O1     *d1-      -0.0002    0.0001    0.0007    0.0007    0.2239   -0.0000   -0.0004    0.0001    0.0226    0.9212
       31 O1     *d0       -0.0452   -0.0578   -0.0759    0.0488    0.0005   -0.0592   -0.2271   -0.0209    0.0001   -0.0000
       32 O1     *d1+       0.0184   -0.2399    0.5807    0.5353   -0.0001   -0.1409   -0.1013    0.0306    0.0000   -0.0000
       33 O1     *d2+      -0.2031    0.0916   -0.5757   -0.0682   -0.0002    0.2306    0.1995   -0.1180    0.0000    0.0000
       34 H2     1s        -0.8635    0.7970    0.7791   -0.0138    0.0019   -0.1861    0.4188    0.0209    0.0005   -0.0000
       35 H2     *s         0.4307   -0.1921   -0.3059    0.1049    0.0036    0.1385   -0.0931    0.0363   -0.0008   -0.0000
       36 H2     *px        0.1663    0.3919   -0.3066   -0.1658   -0.0055    0.1746    0.1166   -0.1372    0.0001   -0.0000
       37 H2     *py        0.0017   -0.0006   -0.0025   -0.0027   -0.1645    0.0002    0.0015   -0.0012    0.0483   -0.4592
       38 H2     *pz        0.2232   -0.4966   -0.1620    0.1716   -0.0051    0.0767   -0.2701   -0.1951   -0.0003    0.0000
       39 O2     1s        -0.2725    0.5759    0.2376   -0.0702    0.0048    0.0401   -0.2946   -0.1399    0.0000    0.0000
       40 O2     2s        -1.1862    2.4847    0.9955   -0.2130    0.0211    0.1660   -1.1087   -0.5635    0.0001    0.0000
       41 O2     *s         1.6801   -3.0063   -1.0035    1.1291   -0.0335   -0.2982    2.3951    1.0084   -0.0002   -0.0000
       42 O2     2px       -0.1396    0.6056    0.2571    0.1381   -0.0021   -0.0094    0.1610    0.0786   -0.0000   -0.0000
       43 O2     *px        0.5534   -0.6805   -0.0642    0.2746   -0.0033   -0.0597    0.8071    0.1653    0.0003   -0.0000
       44 O2     2py        0.0019   -0.0006   -0.0023   -0.0025    0.0277    0.0003    0.0014   -0.0013    0.0457    0.0460
       45 O2     *py       -0.0014    0.0005    0.0019    0.0021    0.0537   -0.0002   -0.0012    0.0010   -0.0672   -0.1530
       46 O2     2pz        0.1001   -0.3442   -0.2984   -0.3547   -0.0008   -0.0313    0.0251    0.1451    0.0001   -0.0000
       47 O2     *pz        0.0000    0.4611    0.4774   -0.2999    0.0047    0.0929   -0.4090   -0.2433   -0.0004    0.0000
       48 O2     *d2-      -0.0009    0.0003    0.0018    0.0020    0.3851   -0.0001   -0.0011    0.0006    0.4081   -0.4657
       49 O2     *d1-      -0.0004    0.0001    0.0011    0.0012    0.2605   -0.0000   -0.0007    0.0003    0.7784    0.1739
       50 O2     *d0        0.1502    0.1997   -0.5596    0.5716   -0.0008   -0.5445   -0.3850   -0.0201    0.0000   -0.0000
       51 O2     *d1+       0.0139   -0.0853    0.1032   -0.8233   -0.0011   -0.4464   -0.5777   -0.1619    0.0000    0.0000
       52 O2     *d2+      -0.0430    0.0484    0.1369   -0.0192    0.0001   -0.6063    0.8510   -0.2701   -0.0000    0.0000
--
 
 
++    Molecular properties:
      ---------------------
 
      Charge (e):
                      =   -0.0000
      Dipole Moment (Debye):
      Origin of the operator (Ang)=    0.0000    0.0000    0.0000
                   X=  1.5490E+00               Y= -8.2050E-16               Z= -3.8746E-01           Total=  1.5967E+00
      Quadrupole Moment (Debye*Ang):
      Origin of the operator (Ang)=    0.1156    0.0000    1.5064
                  XX= -2.1410E+01              XY=  9.8455E-16              XZ=  2.8389E+00              YY= -1.6583E+01
                  YZ=  2.6368E-16              ZZ= -1.3129E+01
      In traceless form (Debye*Ang)
                  XX= -6.5536E+00              XY=  1.4768E-15              XZ=  4.2583E+00              YY=  6.8632E-01
                  YZ=  3.9552E-16              ZZ=  5.8672E+00
--
 
 
  Input file to MOLDEN was generated!
 
 ###############################################################################
 ###############################################################################
 ###                                                                         ###
 ###                                                                         ###
 ###    WARNING: RunFile label nBas                                          ###
 ###    was used       72 times                                              ###
 ###                                                                         ###
 ###                                                                         ###
 ###############################################################################
 ###############################################################################
--- Stop Module: scf at Sun Mar 10 13:49:11 2024 /rc=_RC_ALL_IS_WELL_ ---
*** files: inp.scf.molden inp.scf.h5 inp.UhfOrb inp.UnaOrb xmldump
    saved to directory /home/nike/Modeling_Matters/12546/Answer
--- Module scf spent 1 second ---

*** symbolic link created: INPORB -> inp.RasOrb
--- Start Module: rasscf at Sun Mar 10 13:49:11 2024 ---
 
()()()()()()()()()()()()()()()()()()()()()()()()()()()()()()()()()()()()()()()()()()()()()()()()()()

                                              &RASSCF

                       only a single process is used, running in SERIAL mode
                      available to each process: 2.0 GB of memory, 32 threads
                                             pid: 32378
()()()()()()()()()()()()()()()()()()()()()()()()()()()()()()()()()()()()()()()()()()()()()()()()()()
 
 ###############################################################################
 ###############################################################################
 ###                                                                         ###
 ###                                                                         ###
 ###    ERROR: Mismatch in start orbital file.                               ###
 ###                                                                         ###
 ###                                                                         ###
 ###############################################################################
 ###############################################################################
  ERROR: Start orbital file name is 
 INPORB                                                                         
                                                  
  That file is a valid orbital file.
  Version:                     5
  But some information does not match.
  In the file, nr of basis functions/symm is
    17
  but RUNFILE claims it is
    52
  Is it an old file left in workspace by mistake?
 ###############################################################################
 ###############################################################################
 ###                                                                         ###
 ###                                                                         ###
 ###    ERROR: Error during input preprocessing.                             ###
 ###                                                                         ###
 ###                                                                         ###
 ###############################################################################
 ###############################################################################
 ###############################################################################
 ###############################################################################
 ###                                                                         ###
 ###                                                                         ###
 ###    ERROR:  O.K. after reading OUTO input.                               ###
 ###                                                                         ###
 ###                                                                         ###
 ###############################################################################
 ###############################################################################
  Error exit 9930 from PROC_INP.
  Check previous messages in the output
  to find the reason.
 ###############################################################################
 ###############################################################################
 ###                                                                         ###
 ###                                                                         ###
 ###    ERROR: Input processing failed.                                      ###
 ###                                                                         ###
 ###                                                                         ###
 ###############################################################################
 ###############################################################################
  RASSCF Error: Proc_Inp failed unexpectedly.
  Check the output file for any previous messages
  that can help explain the failure.
  Here is a printing of the input file that
  was processed:
 &RASSCF                                                                        
  
 OUTOrbitals                                                                    
  
 Canonical                                                                      
  
 LumOrb                                                                         
  
 OUTOrbitals                                                                    
  
 Canonical                                                                      
  
 End of input                                                                   
  
 ###############################################################################
 ###############################################################################
 ###                                                                         ###
 ###                                                                         ###
 ###    WARNING: There were warnings during the execution                    ###
 ###    Please, check the output with care!                                  ###
 ###                                                                         ###
 ###                                                                         ###
 ###############################################################################
 ###############################################################################
 ###############################################################################
 ###############################################################################
 ###                                                                         ###
 ###                                                                         ###
 ###    Location: AixCheck                                                   ###
 ###    File: ORDINT                                                         ###
 ###                                                                         ###
 ###                                                                         ###
 ###    Active unit. Should have been closed!                                ###
 ###                                                                         ###
 ###                                                                         ###
 ###############################################################################
 ###############################################################################
--- Stop Module: rasscf at Sun Mar 10 13:49:11 2024 /rc=_RC_INTERNAL_ERROR_ ---
*** files: xmldump
    saved to directory /home/nike/Modeling_Matters/12546/Answer

.########################################################.
.# Some internal inconsistency of the code was detected #.
.########################################################.

    Timing: Wall=3.43 User=27.07 System=9.07
