[Molden Format]
[N_ATOMS]
                     5
[ATOMS] (AU)
H1          1      1           0.00000000      0.00000000      0.00000000
C1          2      6           0.00000000      0.00000000      2.07302956
O1          3      8           2.36933580      0.00000000      2.98253236
H2          4      1           2.21883002      0.00000000      4.81316966
O2          5      8          -1.88089831      0.00000000      3.34649345
[CHARGE] (MULLIKEN)
  7.043889946690263E-002
  0.268178056195073     
 -0.297881152776609     
  0.221699055848976     
 -0.262434858734382     
[GTO] (AU)
   1
   s   3
  0.342525091E+01  0.154328971E+00
  0.623913730E+00  0.535328142E+00
  0.168855400E+00  0.444634542E+00
 
   2
   s   3
  0.716168370E+02  0.154328970E+00
  0.130450960E+02  0.535328140E+00
  0.353051220E+01  0.444634540E+00
   s   3
  0.294124940E+01 -0.999672301E-01
  0.683483100E+00  0.399512830E+00
  0.222289900E+00  0.700115471E+00
   p   3
  0.294124940E+01  0.155916272E+00
  0.683483100E+00  0.607683728E+00
  0.222289900E+00  0.391957395E+00
 
   3
   s   3
  0.130709320E+03  0.154328969E+00
  0.238088610E+02  0.535328136E+00
  0.644360830E+01  0.444634536E+00
   s   3
  0.503315130E+01 -0.999672287E-01
  0.116959610E+01  0.399512825E+00
  0.380389000E+00  0.700115461E+00
   p   3
  0.503315130E+01  0.155916268E+00
  0.116959610E+01  0.607683714E+00
  0.380389000E+00  0.391957386E+00
 
   4
   s   3
  0.342525091E+01  0.154328971E+00
  0.623913730E+00  0.535328142E+00
  0.168855400E+00  0.444634542E+00
 
   5
   s   3
  0.130709320E+03  0.154328969E+00
  0.238088610E+02  0.535328136E+00
  0.644360830E+01  0.444634536E+00
   s   3
  0.503315130E+01 -0.999672287E-01
  0.116959610E+01  0.399512825E+00
  0.380389000E+00  0.700115461E+00
   p   3
  0.503315130E+01  0.155916268E+00
  0.116959610E+01  0.607683714E+00
  0.380389000E+00  0.391957386E+00
 
[MO]
Sym=     1a  
Ene=   -20.3240
Spin= Alpha
Occup=    0.00000
   1         0.00027904
   2         0.00049971
   3        -0.00491007
   4        -0.00452258
   5        -0.00000000
   6        -0.00168190
   7         0.99408821
   8         0.02676445
   9        -0.00393739
  10        -0.00000000
  11         0.00197020
  12        -0.00580977
  13         0.00077577
  14         0.00023101
  15         0.00041701
  16         0.00000000
  17         0.00046654
Sym=     2a  
Ene=   -20.2740
Spin= Alpha
Occup=    0.00000
   1         0.00016382
   2         0.00052374
   3        -0.00754097
   4         0.00542551
   5        -0.00000000
   6        -0.00377744
   7        -0.00084967
   8         0.00026334
   9        -0.00030178
  10        -0.00000000
  11         0.00045028
  12        -0.00010333
  13         0.99421640
  14         0.02646090
  15         0.00495882
  16        -0.00000000
  17        -0.00329535
Sym=     3a  
Ene=   -11.1840
Spin= Alpha
Occup=    0.00000
   1        -0.00653771
   2         0.99272570
   3         0.03181655
   4        -0.00017652
   5        -0.00000000
   6         0.00026922
   7         0.00030762
   8        -0.00441154
   9         0.00225115
  10         0.00000000
  11         0.00122936
  12        -0.00152481
  13         0.00007436
  14        -0.00557490
  15        -0.00119648
  16        -0.00000000
  17         0.00070632
Sym=     4a  
Ene=    -1.4004
Spin= Alpha
Occup=    0.00000
   1         0.03246169
   2        -0.13229949
   3         0.29920462
   4        -0.00228486
   5         0.00000000
   6         0.09175639
   7        -0.16343324
   8         0.57478318
   9        -0.11164516
  10         0.00000000
  11         0.03258449
  12         0.08794382
  13        -0.13333219
  14         0.45376854
  15         0.10981441
  16         0.00000000
  17        -0.05967414
Sym=     5a  
Ene=    -1.2954
Spin= Alpha
Occup=    0.00000
   1         0.01040066
   2        -0.04303156
   3         0.09523952
   4        -0.20931875
   5        -0.00000000
   6         0.05000635
   7         0.15941527
   8        -0.57646637
   9         0.05767075
  10         0.00000000
  11        -0.04284385
  12        -0.10225394
  13        -0.17438563
  14         0.61078081
  15         0.09893533
  16        -0.00000000
  17        -0.07452351
Sym=     6a  
Ene=    -0.8100
Spin= Alpha
Occup=    0.00000
   1        -0.28185608
   2         0.15721150
   3        -0.50899157
   4        -0.13160378
   5         0.00000000
   6         0.22493482
   7        -0.03792670
   8         0.16373944
   9         0.17794104
  10         0.00000000
  11         0.31303411
  12         0.25805306
  13        -0.06925166
  14         0.29325810
  15        -0.05320030
  16        -0.00000000
  17         0.11509588
Sym=     7a  
Ene=    -0.6395
Spin= Alpha
Occup=    0.00000
   1        -0.26815455
   2        -0.01045600
   3         0.05409950
   4         0.28525058
   5        -0.00000000
   6         0.43134149
   7         0.03648474
   8        -0.18057732
   9        -0.40606509
  10        -0.00000000
  11        -0.19199872
  12        -0.20674310
  13         0.00456138
  14        -0.02174183
  15         0.22431228
  16        -0.00000000
  17         0.28898041
Sym=     8a  
Ene=    -0.5996
Spin= Alpha
Occup=    0.00000
   1         0.02858111
   2        -0.07850736
   3         0.25742033
   4        -0.23242591
   5         0.00000000
   6         0.15752566
   7         0.06345419
   8        -0.30853826
   9        -0.18477912
  10         0.00000000
  11         0.40726046
  12         0.25965176
  13         0.10844624
  14        -0.54879371
  15         0.42549083
  16        -0.00000000
  17        -0.23295443
Sym=     9a  
Ene=    -0.5494
Spin= Alpha
Occup=    0.00000
   1        -0.00000000
   2         0.00000000
   3         0.00000000
   4         0.00000000
   5         0.51943423
   6         0.00000000
   7         0.00000000
   8        -0.00000000
   9        -0.00000000
  10         0.62500861
  11        -0.00000000
  12        -0.00000000
  13         0.00000000
  14         0.00000000
  15        -0.00000000
  16         0.38320376
  17         0.00000000
Sym=    10a  
Ene=    -0.4745
Spin= Alpha
Occup=    0.00000
   1         0.24450023
   2        -0.00252518
   3         0.01360493
   4         0.24962846
   5        -0.00000000
   6        -0.19318718
   7         0.07702260
   8        -0.40629558
   9        -0.43276749
  10         0.00000000
  11         0.39614831
  12         0.28655492
  13        -0.04492958
  14         0.25366908
  15        -0.34152844
  16        -0.00000000
  17         0.33723799
Sym=    11a  
Ene=    -0.3649
Spin= Alpha
Occup=    0.00000
   1         0.00000000
   2         0.00000000
   3         0.00000000
   4        -0.00000000
   5         0.29064982
   6        -0.00000000
   7        -0.00000000
   8        -0.00000000
   9         0.00000000
  10        -0.72391746
  11         0.00000000
  12         0.00000000
  13        -0.00000000
  14         0.00000000
  15         0.00000000
  16         0.62209617
  17         0.00000000
Sym=    12a  
Ene=    -0.3609
Spin= Alpha
Occup=    0.00000
   1        -0.30258832
   2         0.00730340
   3        -0.01064533
   4         0.02809419
   5        -0.00000000
   6         0.08700038
   7        -0.00318027
   8         0.02126006
   9        -0.39980413
  10        -0.00000000
  11         0.00266421
  12        -0.05888914
  13        -0.00332989
  14         0.01364985
  15        -0.50868309
  16         0.00000000
  17        -0.71817751
Sym=    13a  
Ene=     0.3074
Spin= Alpha
Occup=    0.00000
   1         0.00000000
   2        -0.00000000
   3         0.00000000
   4         0.00000000
   5        -0.85006974
   6         0.00000000
   7         0.00000000
   8        -0.00000000
   9         0.00000000
  10         0.33532458
  11         0.00000000
  12         0.00000000
  13        -0.00000000
  14         0.00000000
  15        -0.00000000
  16         0.71800222
  17        -0.00000000
Sym=    14a  
Ene=     0.5678
Spin= Alpha
Occup=    0.00000
   1        -0.56406385
   2        -0.10425177
   3         0.60508646
   4         0.30144654
   5         0.00000000
   6        -0.17859463
   7         0.11909821
   8        -0.78117500
   9         0.35380313
  10        -0.00000000
  11        -0.54924508
  12         0.96533069
  13         0.01039171
  14        -0.04008919
  15        -0.08160107
  16        -0.00000000
  17        -0.02889502
Sym=    15a  
Ene=     0.6755
Spin= Alpha
Occup=    0.00000
   1         0.93089918
   2         0.18081661
   3        -1.13322180
   4         0.02699533
   5         0.00000000
   6         0.39897217
   7         0.01055450
   8        -0.08950493
   9        -0.25874001
  10        -0.00000000
  11        -0.57785952
  12         0.57209912
  13        -0.03976576
  14         0.25862540
  15         0.22798915
  16        -0.00000000
  17        -0.29685268
Sym=    16a  
Ene=     0.7308
Spin= Alpha
Occup=    0.00000
   1         0.56099557
   2        -0.06102832
   3         0.32086548
   4         0.63598400
   5         0.00000000
   6         0.89834474
   7         0.06467698
   8        -0.42857456
   9         0.67756939
  10        -0.00000000
  11         0.31668767
  12        -0.21848282
  13         0.01851014
  14        -0.12468551
  15        -0.31882595
  16        -0.00000000
  17        -0.20245133
Sym=    17a  
Ene=     0.9745
Spin= Alpha
Occup=    0.00000
   1         0.22302410
   2        -0.06838281
   3         0.50925098
   4        -1.04325282
   5        -0.00000000
   6         0.66537333
   7        -0.01465596
   8         0.10794919
   9        -0.11119119
  10         0.00000000
  11        -0.34520104
  12         0.13841254
  13         0.11243623
  14        -0.86257246
  15        -0.73366394
  16         0.00000000
  17         0.51447216
