### Running on host: fes33

     Program PWSCF v.6.7MaX starts on 10Apr2024 at  8:32:11 

     This program is part of the open-source Quantum ESPRESSO suite
     for quantum simulation of materials; please cite
         "P. Giannozzi et al., J. Phys.:Condens. Matter 21 395502 (2009);
         "P. Giannozzi et al., J. Phys.:Condens. Matter 29 465901 (2017);
          URL http://www.quantum-espresso.org", 
     in publications or presentations arising from this work. More details at
     http://www.quantum-espresso.org/quote

     Parallel version (MPI), running on     4 processors

     MPI processes distributed on     1 nodes
     R & G space division:  proc/nbgrp/npool/nimage =       4
     Reading input from pwscf_kpoints-8.in

     Current dimensions of program PWSCF are:
     Max number of different atomic species (ntypx) = 10
     Max number of k-points (npk) =  40000
     Max angular momentum in pseudopotentials (lmaxx) =  3
     file Pb.pbe-dn-kjpaw_psl.0.2.2.UPF: wavefunction(s)  6S renormalized

     Subspace diagonalization in iterative solution of the eigenvalue problem:
     one sub-group per band group will be used
     scalapack distributed-memory algorithm (size of sub-group:  2*  2 procs)

     Found symmetry operation: I + (  0.0000  0.0000  0.5000)
     This is a supercell, fractional translations are disabled
     Message from routine setup:
     using ibrav=0 with symmetry is DISCOURAGED, use correct ibrav instead

     Parallelization info
     --------------------
     sticks:   dense  smooth     PW     G-vecs:    dense   smooth      PW
     Min        1853    1853    498               119942   119942   16658
     Max        1856    1856    499               119943   119943   16661
     Sum        7417    7417   1993               479769   479769   66635



     bravais-lattice index     =            0
     lattice parameter (alat)  =      24.1188  a.u.
     unit-cell volume          =   14030.3801 (a.u.)^3
     number of atoms/cell      =           40
     number of atomic types    =            3
     number of electrons       =       352.00
     number of Kohn-Sham states=          211
     kinetic-energy cutoff     =      40.0000  Ry
     charge density cutoff     =     160.0000  Ry
     scf convergence threshold =      8.0E-09
     mixing beta               =       0.4000
     number of iterations used =            8  plain     mixing
     Exchange-correlation= SLA  PW   PBX  PBC
                           (   1   4   3   4   0   0   0)

     celldm(1)=  24.118843  celldm(2)=   0.000000  celldm(3)=   0.000000
     celldm(4)=   0.000000  celldm(5)=   0.000000  celldm(6)=   0.000000

     crystal axes: (cart. coord. in units of alat)
               a(1) = (   1.000000   0.000000   0.000000 )  
               a(2) = (   0.000000   1.000000   0.000000 )  
               a(3) = (   0.000000   0.000000   1.000000 )  

     reciprocal axes: (cart. coord. in units 2 pi/alat)
               b(1) = (  1.000000  0.000000  0.000000 )  
               b(2) = (  0.000000  1.000000  0.000000 )  
               b(3) = (  0.000000  0.000000  1.000000 )  


     PseudoPot. # 1 for Cs read from file:
     ../../pseudo/Cs_pbe_v1.uspp.F.UPF
     MD5 check sum: 3476d69cb178dfad3ffaa59df4e07ca4
     Pseudo is Ultrasoft + core correction, Zval =  9.0
     Generated by new atomic code, or converted to UPF format
     Using radial grid of  905 points,  6 beta functions with: 
                l(1) =   0
                l(2) =   0
                l(3) =   1
                l(4) =   1
                l(5) =   2
                l(6) =   2
     Q(r) pseudized with  6 coefficients,  rinner =    1.500   1.500   1.500
                                                       1.500   1.500

     PseudoPot. # 2 for I  read from file:
     ../../pseudo/I.pbe-n-kjpaw_psl.0.2.UPF
     MD5 check sum: d4ef18d9c8f18dc85e5843bca1e50dc0
     Pseudo is Projector augmented-wave + core cor, Zval =  7.0
     Generated using "atomic" code by A. Dal Corso  v.5.0.99 svn rev. 10869
     Shape of augmentation charge: PSQ
     Using radial grid of 1247 points,  4 beta functions with: 
                l(1) =   0
                l(2) =   0
                l(3) =   1
                l(4) =   1
     Q(r) pseudized with 0 coefficients 


     PseudoPot. # 3 for Pb read from file:
     ../../pseudo/Pb.pbe-dn-kjpaw_psl.0.2.2.UPF
     MD5 check sum: 9d431e6316058b74ade52399a6cf67da
     Pseudo is Projector augmented-wave + core cor, Zval = 14.0
     Generated using "atomic" code by A. Dal Corso  v.5.0.99 svn rev. 10869
     Shape of augmentation charge: PSQ
     Using radial grid of 1281 points,  6 beta functions with: 
                l(1) =   0
                l(2) =   0
                l(3) =   1
                l(4) =   1
                l(5) =   2
                l(6) =   2
     Q(r) pseudized with 0 coefficients 


     atomic species   valence    mass     pseudopotential
        Cs             9.00   132.90545     Cs( 1.00)
        I              7.00   126.90447     I ( 1.00)
        Pb            14.00   207.20000     Pb( 1.00)

     48 Sym. Ops., with inversion, found


                                    s                        frac. trans.

      isym =  1     identity                                     

 cryst.   s( 1) = (     1          0          0      )
                  (     0          1          0      )
                  (     0          0          1      )

 cart.    s( 1) = (  1.0000000  0.0000000  0.0000000 )
                  (  0.0000000  1.0000000  0.0000000 )
                  (  0.0000000  0.0000000  1.0000000 )


      isym =  2     180 deg rotation - cart. axis [0,0,1]        

 cryst.   s( 2) = (    -1          0          0      )
                  (     0         -1          0      )
                  (     0          0          1      )

 cart.    s( 2) = ( -1.0000000  0.0000000  0.0000000 )
                  (  0.0000000 -1.0000000  0.0000000 )
                  (  0.0000000  0.0000000  1.0000000 )


      isym =  3     180 deg rotation - cart. axis [0,1,0]        

 cryst.   s( 3) = (    -1          0          0      )
                  (     0          1          0      )
                  (     0          0         -1      )

 cart.    s( 3) = ( -1.0000000  0.0000000  0.0000000 )
                  (  0.0000000  1.0000000  0.0000000 )
                  (  0.0000000  0.0000000 -1.0000000 )


      isym =  4     180 deg rotation - cart. axis [1,0,0]        

 cryst.   s( 4) = (     1          0          0      )
                  (     0         -1          0      )
                  (     0          0         -1      )

 cart.    s( 4) = (  1.0000000  0.0000000  0.0000000 )
                  (  0.0000000 -1.0000000  0.0000000 )
                  (  0.0000000  0.0000000 -1.0000000 )


      isym =  5     180 deg rotation - cart. axis [1,1,0]        

 cryst.   s( 5) = (     0          1          0      )
                  (     1          0          0      )
                  (     0          0         -1      )

 cart.    s( 5) = (  0.0000000  1.0000000  0.0000000 )
                  (  1.0000000  0.0000000  0.0000000 )
                  (  0.0000000  0.0000000 -1.0000000 )


      isym =  6     180 deg rotation - cart. axis [1,-1,0]       

 cryst.   s( 6) = (     0         -1          0      )
                  (    -1          0          0      )
                  (     0          0         -1      )

 cart.    s( 6) = (  0.0000000 -1.0000000  0.0000000 )
                  ( -1.0000000  0.0000000  0.0000000 )
                  (  0.0000000  0.0000000 -1.0000000 )


      isym =  7      90 deg rotation - cart. axis [0,0,-1]       

 cryst.   s( 7) = (     0         -1          0      )
                  (     1          0          0      )
                  (     0          0          1      )

 cart.    s( 7) = (  0.0000000  1.0000000  0.0000000 )
                  ( -1.0000000  0.0000000  0.0000000 )
                  (  0.0000000  0.0000000  1.0000000 )


      isym =  8      90 deg rotation - cart. axis [0,0,1]        

 cryst.   s( 8) = (     0          1          0      )
                  (    -1          0          0      )
                  (     0          0          1      )

 cart.    s( 8) = (  0.0000000 -1.0000000  0.0000000 )
                  (  1.0000000  0.0000000  0.0000000 )
                  (  0.0000000  0.0000000  1.0000000 )


      isym =  9     180 deg rotation - cart. axis [1,0,1]        

 cryst.   s( 9) = (     0          0          1      )
                  (     0         -1          0      )
                  (     1          0          0      )

 cart.    s( 9) = (  0.0000000  0.0000000  1.0000000 )
                  (  0.0000000 -1.0000000  0.0000000 )
                  (  1.0000000  0.0000000  0.0000000 )


      isym = 10     180 deg rotation - cart. axis [-1,0,1]       

 cryst.   s(10) = (     0          0         -1      )
                  (     0         -1          0      )
                  (    -1          0          0      )

 cart.    s(10) = (  0.0000000  0.0000000 -1.0000000 )
                  (  0.0000000 -1.0000000  0.0000000 )
                  ( -1.0000000  0.0000000  0.0000000 )


      isym = 11      90 deg rotation - cart. axis [0,1,0]        

 cryst.   s(11) = (     0          0         -1      )
                  (     0          1          0      )
                  (     1          0          0      )

 cart.    s(11) = (  0.0000000  0.0000000  1.0000000 )
                  (  0.0000000  1.0000000  0.0000000 )
                  ( -1.0000000  0.0000000  0.0000000 )


      isym = 12      90 deg rotation - cart. axis [0,-1,0]       

 cryst.   s(12) = (     0          0          1      )
                  (     0          1          0      )
                  (    -1          0          0      )

 cart.    s(12) = (  0.0000000  0.0000000 -1.0000000 )
                  (  0.0000000  1.0000000  0.0000000 )
                  (  1.0000000  0.0000000  0.0000000 )


      isym = 13     180 deg rotation - cart. axis [0,1,1]        

 cryst.   s(13) = (    -1          0          0      )
                  (     0          0          1      )
                  (     0          1          0      )

 cart.    s(13) = ( -1.0000000  0.0000000  0.0000000 )
                  (  0.0000000  0.0000000  1.0000000 )
                  (  0.0000000  1.0000000  0.0000000 )


      isym = 14     180 deg rotation - cart. axis [0,1,-1]       

 cryst.   s(14) = (    -1          0          0      )
                  (     0          0         -1      )
                  (     0         -1          0      )

 cart.    s(14) = ( -1.0000000  0.0000000  0.0000000 )
                  (  0.0000000  0.0000000 -1.0000000 )
                  (  0.0000000 -1.0000000  0.0000000 )


      isym = 15      90 deg rotation - cart. axis [-1,0,0]       

 cryst.   s(15) = (     1          0          0      )
                  (     0          0         -1      )
                  (     0          1          0      )

 cart.    s(15) = (  1.0000000  0.0000000  0.0000000 )
                  (  0.0000000  0.0000000  1.0000000 )
                  (  0.0000000 -1.0000000  0.0000000 )


      isym = 16      90 deg rotation - cart. axis [1,0,0]        

 cryst.   s(16) = (     1          0          0      )
                  (     0          0          1      )
                  (     0         -1          0      )

 cart.    s(16) = (  1.0000000  0.0000000  0.0000000 )
                  (  0.0000000  0.0000000 -1.0000000 )
                  (  0.0000000  1.0000000  0.0000000 )


      isym = 17     120 deg rotation - cart. axis [-1,-1,-1]     

 cryst.   s(17) = (     0          0          1      )
                  (     1          0          0      )
                  (     0          1          0      )

 cart.    s(17) = (  0.0000000  1.0000000  0.0000000 )
                  (  0.0000000  0.0000000  1.0000000 )
                  (  1.0000000  0.0000000  0.0000000 )


      isym = 18     120 deg rotation - cart. axis [-1,1,1]       

 cryst.   s(18) = (     0          0         -1      )
                  (    -1          0          0      )
                  (     0          1          0      )

 cart.    s(18) = (  0.0000000 -1.0000000  0.0000000 )
                  (  0.0000000  0.0000000  1.0000000 )
                  ( -1.0000000  0.0000000  0.0000000 )


      isym = 19     120 deg rotation - cart. axis [1,1,-1]       

 cryst.   s(19) = (     0          0         -1      )
                  (     1          0          0      )
                  (     0         -1          0      )

 cart.    s(19) = (  0.0000000  1.0000000  0.0000000 )
                  (  0.0000000  0.0000000 -1.0000000 )
                  ( -1.0000000  0.0000000  0.0000000 )


      isym = 20     120 deg rotation - cart. axis [1,-1,1]       

 cryst.   s(20) = (     0          0          1      )
                  (    -1          0          0      )
                  (     0         -1          0      )

 cart.    s(20) = (  0.0000000 -1.0000000  0.0000000 )
                  (  0.0000000  0.0000000 -1.0000000 )
                  (  1.0000000  0.0000000  0.0000000 )


      isym = 21     120 deg rotation - cart. axis [1,1,1]        

 cryst.   s(21) = (     0          1          0      )
                  (     0          0          1      )
                  (     1          0          0      )

 cart.    s(21) = (  0.0000000  0.0000000  1.0000000 )
                  (  1.0000000  0.0000000  0.0000000 )
                  (  0.0000000  1.0000000  0.0000000 )


      isym = 22     120 deg rotation - cart. axis [-1,1,-1]      

 cryst.   s(22) = (     0         -1          0      )
                  (     0          0         -1      )
                  (     1          0          0      )

 cart.    s(22) = (  0.0000000  0.0000000  1.0000000 )
                  ( -1.0000000  0.0000000  0.0000000 )
                  (  0.0000000 -1.0000000  0.0000000 )


      isym = 23     120 deg rotation - cart. axis [1,-1,-1]      

 cryst.   s(23) = (     0         -1          0      )
                  (     0          0          1      )
                  (    -1          0          0      )

 cart.    s(23) = (  0.0000000  0.0000000 -1.0000000 )
                  ( -1.0000000  0.0000000  0.0000000 )
                  (  0.0000000  1.0000000  0.0000000 )


      isym = 24     120 deg rotation - cart. axis [-1,-1,1]      

 cryst.   s(24) = (     0          1          0      )
                  (     0          0         -1      )
                  (    -1          0          0      )

 cart.    s(24) = (  0.0000000  0.0000000 -1.0000000 )
                  (  1.0000000  0.0000000  0.0000000 )
                  (  0.0000000 -1.0000000  0.0000000 )


      isym = 25     inversion                                    

 cryst.   s(25) = (    -1          0          0      )
                  (     0         -1          0      )
                  (     0          0         -1      )

 cart.    s(25) = ( -1.0000000  0.0000000  0.0000000 )
                  (  0.0000000 -1.0000000  0.0000000 )
                  (  0.0000000  0.0000000 -1.0000000 )


      isym = 26     inv. 180 deg rotation - cart. axis [0,0,1]   

 cryst.   s(26) = (     1          0          0      )
                  (     0          1          0      )
                  (     0          0         -1      )

 cart.    s(26) = (  1.0000000  0.0000000  0.0000000 )
                  (  0.0000000  1.0000000  0.0000000 )
                  (  0.0000000  0.0000000 -1.0000000 )


      isym = 27     inv. 180 deg rotation - cart. axis [0,1,0]   

 cryst.   s(27) = (     1          0          0      )
                  (     0         -1          0      )
                  (     0          0          1      )

 cart.    s(27) = (  1.0000000  0.0000000  0.0000000 )
                  (  0.0000000 -1.0000000  0.0000000 )
                  (  0.0000000  0.0000000  1.0000000 )


      isym = 28     inv. 180 deg rotation - cart. axis [1,0,0]   

 cryst.   s(28) = (    -1          0          0      )
                  (     0          1          0      )
                  (     0          0          1      )

 cart.    s(28) = ( -1.0000000  0.0000000  0.0000000 )
                  (  0.0000000  1.0000000  0.0000000 )
                  (  0.0000000  0.0000000  1.0000000 )


      isym = 29     inv. 180 deg rotation - cart. axis [1,1,0]   

 cryst.   s(29) = (     0         -1          0      )
                  (    -1          0          0      )
                  (     0          0          1      )

 cart.    s(29) = (  0.0000000 -1.0000000  0.0000000 )
                  ( -1.0000000  0.0000000  0.0000000 )
                  (  0.0000000  0.0000000  1.0000000 )


      isym = 30     inv. 180 deg rotation - cart. axis [1,-1,0]  

 cryst.   s(30) = (     0          1          0      )
                  (     1          0          0      )
                  (     0          0          1      )

 cart.    s(30) = (  0.0000000  1.0000000  0.0000000 )
                  (  1.0000000  0.0000000  0.0000000 )
                  (  0.0000000  0.0000000  1.0000000 )


      isym = 31     inv.  90 deg rotation - cart. axis [0,0,-1]  

 cryst.   s(31) = (     0          1          0      )
                  (    -1          0          0      )
                  (     0          0         -1      )

 cart.    s(31) = (  0.0000000 -1.0000000  0.0000000 )
                  (  1.0000000  0.0000000  0.0000000 )
                  (  0.0000000  0.0000000 -1.0000000 )


      isym = 32     inv.  90 deg rotation - cart. axis [0,0,1]   

 cryst.   s(32) = (     0         -1          0      )
                  (     1          0          0      )
                  (     0          0         -1      )

 cart.    s(32) = (  0.0000000  1.0000000  0.0000000 )
                  ( -1.0000000  0.0000000  0.0000000 )
                  (  0.0000000  0.0000000 -1.0000000 )


      isym = 33     inv. 180 deg rotation - cart. axis [1,0,1]   

 cryst.   s(33) = (     0          0         -1      )
                  (     0          1          0      )
                  (    -1          0          0      )

 cart.    s(33) = (  0.0000000  0.0000000 -1.0000000 )
                  (  0.0000000  1.0000000  0.0000000 )
                  ( -1.0000000  0.0000000  0.0000000 )


      isym = 34     inv. 180 deg rotation - cart. axis [-1,0,1]  

 cryst.   s(34) = (     0          0          1      )
                  (     0          1          0      )
                  (     1          0          0      )

 cart.    s(34) = (  0.0000000  0.0000000  1.0000000 )
                  (  0.0000000  1.0000000  0.0000000 )
                  (  1.0000000  0.0000000  0.0000000 )


      isym = 35     inv.  90 deg rotation - cart. axis [0,1,0]   

 cryst.   s(35) = (     0          0          1      )
                  (     0         -1          0      )
                  (    -1          0          0      )

 cart.    s(35) = (  0.0000000  0.0000000 -1.0000000 )
                  (  0.0000000 -1.0000000  0.0000000 )
                  (  1.0000000  0.0000000  0.0000000 )


      isym = 36     inv.  90 deg rotation - cart. axis [0,-1,0]  

 cryst.   s(36) = (     0          0         -1      )
                  (     0         -1          0      )
                  (     1          0          0      )

 cart.    s(36) = (  0.0000000  0.0000000  1.0000000 )
                  (  0.0000000 -1.0000000  0.0000000 )
                  ( -1.0000000  0.0000000  0.0000000 )


      isym = 37     inv. 180 deg rotation - cart. axis [0,1,1]   

 cryst.   s(37) = (     1          0          0      )
                  (     0          0         -1      )
                  (     0         -1          0      )

 cart.    s(37) = (  1.0000000  0.0000000  0.0000000 )
                  (  0.0000000  0.0000000 -1.0000000 )
                  (  0.0000000 -1.0000000  0.0000000 )


      isym = 38     inv. 180 deg rotation - cart. axis [0,1,-1]  

 cryst.   s(38) = (     1          0          0      )
                  (     0          0          1      )
                  (     0          1          0      )

 cart.    s(38) = (  1.0000000  0.0000000  0.0000000 )
                  (  0.0000000  0.0000000  1.0000000 )
                  (  0.0000000  1.0000000  0.0000000 )


      isym = 39     inv.  90 deg rotation - cart. axis [-1,0,0]  

 cryst.   s(39) = (    -1          0          0      )
                  (     0          0          1      )
                  (     0         -1          0      )

 cart.    s(39) = ( -1.0000000  0.0000000  0.0000000 )
                  (  0.0000000  0.0000000 -1.0000000 )
                  (  0.0000000  1.0000000  0.0000000 )


      isym = 40     inv.  90 deg rotation - cart. axis [1,0,0]   

 cryst.   s(40) = (    -1          0          0      )
                  (     0          0         -1      )
                  (     0          1          0      )

 cart.    s(40) = ( -1.0000000  0.0000000  0.0000000 )
                  (  0.0000000  0.0000000  1.0000000 )
                  (  0.0000000 -1.0000000  0.0000000 )


      isym = 41     inv. 120 deg rotation - cart. axis [-1,-1,-1]

 cryst.   s(41) = (     0          0         -1      )
                  (    -1          0          0      )
                  (     0         -1          0      )

 cart.    s(41) = (  0.0000000 -1.0000000  0.0000000 )
                  (  0.0000000  0.0000000 -1.0000000 )
                  ( -1.0000000  0.0000000  0.0000000 )


      isym = 42     inv. 120 deg rotation - cart. axis [-1,1,1]  

 cryst.   s(42) = (     0          0          1      )
                  (     1          0          0      )
                  (     0         -1          0      )

 cart.    s(42) = (  0.0000000  1.0000000  0.0000000 )
                  (  0.0000000  0.0000000 -1.0000000 )
                  (  1.0000000  0.0000000  0.0000000 )


      isym = 43     inv. 120 deg rotation - cart. axis [1,1,-1]  

 cryst.   s(43) = (     0          0          1      )
                  (    -1          0          0      )
                  (     0          1          0      )

 cart.    s(43) = (  0.0000000 -1.0000000  0.0000000 )
                  (  0.0000000  0.0000000  1.0000000 )
                  (  1.0000000  0.0000000  0.0000000 )


      isym = 44     inv. 120 deg rotation - cart. axis [1,-1,1]  

 cryst.   s(44) = (     0          0         -1      )
                  (     1          0          0      )
                  (     0          1          0      )

 cart.    s(44) = (  0.0000000  1.0000000  0.0000000 )
                  (  0.0000000  0.0000000  1.0000000 )
                  ( -1.0000000  0.0000000  0.0000000 )


      isym = 45     inv. 120 deg rotation - cart. axis [1,1,1]   

 cryst.   s(45) = (     0         -1          0      )
                  (     0          0         -1      )
                  (    -1          0          0      )

 cart.    s(45) = (  0.0000000  0.0000000 -1.0000000 )
                  ( -1.0000000  0.0000000  0.0000000 )
                  (  0.0000000 -1.0000000  0.0000000 )


      isym = 46     inv. 120 deg rotation - cart. axis [-1,1,-1] 

 cryst.   s(46) = (     0          1          0      )
                  (     0          0          1      )
                  (    -1          0          0      )

 cart.    s(46) = (  0.0000000  0.0000000 -1.0000000 )
                  (  1.0000000  0.0000000  0.0000000 )
                  (  0.0000000  1.0000000  0.0000000 )


      isym = 47     inv. 120 deg rotation - cart. axis [1,-1,-1] 

 cryst.   s(47) = (     0          1          0      )
                  (     0          0         -1      )
                  (     1          0          0      )

 cart.    s(47) = (  0.0000000  0.0000000  1.0000000 )
                  (  1.0000000  0.0000000  0.0000000 )
                  (  0.0000000 -1.0000000  0.0000000 )


      isym = 48     inv. 120 deg rotation - cart. axis [-1,-1,1] 

 cryst.   s(48) = (     0         -1          0      )
                  (     0          0          1      )
                  (     1          0          0      )

 cart.    s(48) = (  0.0000000  0.0000000  1.0000000 )
                  ( -1.0000000  0.0000000  0.0000000 )
                  (  0.0000000  1.0000000  0.0000000 )


   Cartesian axes

     site n.     atom                  positions (alat units)
         1           Cs  tau(   1) = (   0.2500001   0.2500001   0.2500001  )
         2           Cs  tau(   2) = (   0.2500001   0.2500001   0.7499999  )
         3           Cs  tau(   3) = (   0.2500001   0.7499999   0.2500001  )
         4           Cs  tau(   4) = (   0.2500001   0.7499999   0.7499999  )
         5           Cs  tau(   5) = (   0.7499999   0.2500001   0.2500001  )
         6           Cs  tau(   6) = (   0.7499999   0.2500001   0.7499999  )
         7           Cs  tau(   7) = (   0.7499999   0.7499999   0.2500001  )
         8           Cs  tau(   8) = (   0.7499999   0.7499999   0.7499999  )
         9           Pb  tau(   9) = (   0.0000000   0.0000000   0.0000000  )
        10           Pb  tau(  10) = (   0.0000000   0.0000000   0.5000000  )
        11           Pb  tau(  11) = (   0.0000000   0.5000000   0.0000000  )
        12           Pb  tau(  12) = (   0.0000000   0.5000000   0.5000000  )
        13           Pb  tau(  13) = (   0.5000000   0.0000000   0.0000000  )
        14           Pb  tau(  14) = (   0.5000000   0.0000000   0.5000000  )
        15           Pb  tau(  15) = (   0.5000000   0.5000000   0.0000000  )
        16           Pb  tau(  16) = (   0.5000000   0.5000000   0.5000000  )
        17           I   tau(  17) = (   0.0000000   0.0000000   0.2500016  )
        18           I   tau(  18) = (   0.0000000   0.0000000   0.7499984  )
        19           I   tau(  19) = (   0.0000000   0.5000000   0.2500017  )
        20           I   tau(  20) = (   0.0000000   0.5000000   0.7499983  )
        21           I   tau(  21) = (   0.5000000   0.0000000   0.2500017  )
        22           I   tau(  22) = (   0.5000000   0.0000000   0.7499983  )
        23           I   tau(  23) = (   0.5000000   0.5000000   0.2500017  )
        24           I   tau(  24) = (   0.5000000   0.5000000   0.7499983  )
        25           I   tau(  25) = (   0.0000000   0.2500016   0.0000000  )
        26           I   tau(  26) = (   0.0000000   0.2500017   0.5000000  )
        27           I   tau(  27) = (   0.0000000   0.7499984   0.0000000  )
        28           I   tau(  28) = (   0.0000000   0.7499983   0.5000000  )
        29           I   tau(  29) = (   0.5000000   0.2500017   0.0000000  )
        30           I   tau(  30) = (   0.5000000   0.2500017   0.5000000  )
        31           I   tau(  31) = (   0.5000000   0.7499983   0.0000000  )
        32           I   tau(  32) = (   0.5000000   0.7499983   0.5000000  )
        33           I   tau(  33) = (   0.2500016   0.0000000   0.0000000  )
        34           I   tau(  34) = (   0.2500017   0.0000000   0.5000000  )
        35           I   tau(  35) = (   0.2500017   0.5000000   0.0000000  )
        36           I   tau(  36) = (   0.2500017   0.5000000   0.5000000  )
        37           I   tau(  37) = (   0.7499984   0.0000000   0.0000000  )
        38           I   tau(  38) = (   0.7499983   0.0000000   0.5000000  )
        39           I   tau(  39) = (   0.7499983   0.5000000   0.0000000  )
        40           I   tau(  40) = (   0.7499983   0.5000000   0.5000000  )

   Crystallographic axes

     site n.     atom                  positions (cryst. coord.)
         1           Cs  tau(   1) = (  0.2500001  0.2500001  0.2500001  )
         2           Cs  tau(   2) = (  0.2500001  0.2500001  0.7499999  )
         3           Cs  tau(   3) = (  0.2500001  0.7499999  0.2500001  )
         4           Cs  tau(   4) = (  0.2500001  0.7499999  0.7499999  )
         5           Cs  tau(   5) = (  0.7499999  0.2500001  0.2500001  )
         6           Cs  tau(   6) = (  0.7499999  0.2500001  0.7499999  )
         7           Cs  tau(   7) = (  0.7499999  0.7499999  0.2500001  )
         8           Cs  tau(   8) = (  0.7499999  0.7499999  0.7499999  )
         9           Pb  tau(   9) = (  0.0000000  0.0000000  0.0000000  )
        10           Pb  tau(  10) = (  0.0000000  0.0000000  0.5000000  )
        11           Pb  tau(  11) = (  0.0000000  0.5000000  0.0000000  )
        12           Pb  tau(  12) = (  0.0000000  0.5000000  0.5000000  )
        13           Pb  tau(  13) = (  0.5000000  0.0000000  0.0000000  )
        14           Pb  tau(  14) = (  0.5000000  0.0000000  0.5000000  )
        15           Pb  tau(  15) = (  0.5000000  0.5000000  0.0000000  )
        16           Pb  tau(  16) = (  0.5000000  0.5000000  0.5000000  )
        17           I   tau(  17) = (  0.0000000  0.0000000  0.2500016  )
        18           I   tau(  18) = (  0.0000000  0.0000000  0.7499984  )
        19           I   tau(  19) = (  0.0000000  0.5000000  0.2500017  )
        20           I   tau(  20) = (  0.0000000  0.5000000  0.7499983  )
        21           I   tau(  21) = (  0.5000000  0.0000000  0.2500017  )
        22           I   tau(  22) = (  0.5000000  0.0000000  0.7499983  )
        23           I   tau(  23) = (  0.5000000  0.5000000  0.2500017  )
        24           I   tau(  24) = (  0.5000000  0.5000000  0.7499983  )
        25           I   tau(  25) = (  0.0000000  0.2500016  0.0000000  )
        26           I   tau(  26) = (  0.0000000  0.2500017  0.5000000  )
        27           I   tau(  27) = (  0.0000000  0.7499984  0.0000000  )
        28           I   tau(  28) = (  0.0000000  0.7499983  0.5000000  )
        29           I   tau(  29) = (  0.5000000  0.2500017  0.0000000  )
        30           I   tau(  30) = (  0.5000000  0.2500017  0.5000000  )
        31           I   tau(  31) = (  0.5000000  0.7499983  0.0000000  )
        32           I   tau(  32) = (  0.5000000  0.7499983  0.5000000  )
        33           I   tau(  33) = (  0.2500016  0.0000000  0.0000000  )
        34           I   tau(  34) = (  0.2500017  0.0000000  0.5000000  )
        35           I   tau(  35) = (  0.2500017  0.5000000  0.0000000  )
        36           I   tau(  36) = (  0.2500017  0.5000000  0.5000000  )
        37           I   tau(  37) = (  0.7499984  0.0000000  0.0000000  )
        38           I   tau(  38) = (  0.7499983  0.0000000  0.5000000  )
        39           I   tau(  39) = (  0.7499983  0.5000000  0.0000000  )
        40           I   tau(  40) = (  0.7499983  0.5000000  0.5000000  )

     number of k points=    35  Marzari-Vanderbilt smearing, width (Ry)=  0.0147
                       cart. coord. in units 2pi/alat
        k(    1) = (   0.0000000   0.0000000   0.0000000), wk =   0.0039062
        k(    2) = (   0.0000000   0.0000000   0.1250000), wk =   0.0234375
        k(    3) = (   0.0000000   0.0000000   0.2500000), wk =   0.0234375
        k(    4) = (   0.0000000   0.0000000   0.3750000), wk =   0.0234375
        k(    5) = (   0.0000000   0.0000000  -0.5000000), wk =   0.0117188
        k(    6) = (   0.0000000   0.1250000   0.1250000), wk =   0.0468750
        k(    7) = (   0.0000000   0.1250000   0.2500000), wk =   0.0937500
        k(    8) = (   0.0000000   0.1250000   0.3750000), wk =   0.0937500
        k(    9) = (   0.0000000   0.1250000  -0.5000000), wk =   0.0468750
        k(   10) = (   0.0000000   0.2500000   0.2500000), wk =   0.0468750
        k(   11) = (   0.0000000   0.2500000   0.3750000), wk =   0.0937500
        k(   12) = (   0.0000000   0.2500000  -0.5000000), wk =   0.0468750
        k(   13) = (   0.0000000   0.3750000   0.3750000), wk =   0.0468750
        k(   14) = (   0.0000000   0.3750000  -0.5000000), wk =   0.0468750
        k(   15) = (   0.0000000  -0.5000000  -0.5000000), wk =   0.0117188
        k(   16) = (   0.1250000   0.1250000   0.1250000), wk =   0.0312500
        k(   17) = (   0.1250000   0.1250000   0.2500000), wk =   0.0937500
        k(   18) = (   0.1250000   0.1250000   0.3750000), wk =   0.0937500
        k(   19) = (   0.1250000   0.1250000  -0.5000000), wk =   0.0468750
        k(   20) = (   0.1250000   0.2500000   0.2500000), wk =   0.0937500
        k(   21) = (   0.1250000   0.2500000   0.3750000), wk =   0.1875000
        k(   22) = (   0.1250000   0.2500000  -0.5000000), wk =   0.0937500
        k(   23) = (   0.1250000   0.3750000   0.3750000), wk =   0.0937500
        k(   24) = (   0.1250000   0.3750000  -0.5000000), wk =   0.0937500
        k(   25) = (   0.1250000  -0.5000000  -0.5000000), wk =   0.0234375
        k(   26) = (   0.2500000   0.2500000   0.2500000), wk =   0.0312500
        k(   27) = (   0.2500000   0.2500000   0.3750000), wk =   0.0937500
        k(   28) = (   0.2500000   0.2500000  -0.5000000), wk =   0.0468750
        k(   29) = (   0.2500000   0.3750000   0.3750000), wk =   0.0937500
        k(   30) = (   0.2500000   0.3750000  -0.5000000), wk =   0.0937500
        k(   31) = (   0.2500000  -0.5000000  -0.5000000), wk =   0.0234375
        k(   32) = (   0.3750000   0.3750000   0.3750000), wk =   0.0312500
        k(   33) = (   0.3750000   0.3750000  -0.5000000), wk =   0.0468750
        k(   34) = (   0.3750000  -0.5000000  -0.5000000), wk =   0.0234375
        k(   35) = (  -0.5000000  -0.5000000  -0.5000000), wk =   0.0039062

                       cryst. coord.
        k(    1) = (   0.0000000   0.0000000   0.0000000), wk =   0.0039062
        k(    2) = (   0.0000000   0.0000000   0.1250000), wk =   0.0234375
        k(    3) = (   0.0000000   0.0000000   0.2500000), wk =   0.0234375
        k(    4) = (   0.0000000   0.0000000   0.3750000), wk =   0.0234375
        k(    5) = (   0.0000000   0.0000000  -0.5000000), wk =   0.0117188
        k(    6) = (   0.0000000   0.1250000   0.1250000), wk =   0.0468750
        k(    7) = (   0.0000000   0.1250000   0.2500000), wk =   0.0937500
        k(    8) = (   0.0000000   0.1250000   0.3750000), wk =   0.0937500
        k(    9) = (   0.0000000   0.1250000  -0.5000000), wk =   0.0468750
        k(   10) = (   0.0000000   0.2500000   0.2500000), wk =   0.0468750
        k(   11) = (   0.0000000   0.2500000   0.3750000), wk =   0.0937500
        k(   12) = (   0.0000000   0.2500000  -0.5000000), wk =   0.0468750
        k(   13) = (   0.0000000   0.3750000   0.3750000), wk =   0.0468750
        k(   14) = (   0.0000000   0.3750000  -0.5000000), wk =   0.0468750
        k(   15) = (   0.0000000  -0.5000000  -0.5000000), wk =   0.0117188
        k(   16) = (   0.1250000   0.1250000   0.1250000), wk =   0.0312500
        k(   17) = (   0.1250000   0.1250000   0.2500000), wk =   0.0937500
        k(   18) = (   0.1250000   0.1250000   0.3750000), wk =   0.0937500
        k(   19) = (   0.1250000   0.1250000  -0.5000000), wk =   0.0468750
        k(   20) = (   0.1250000   0.2500000   0.2500000), wk =   0.0937500
        k(   21) = (   0.1250000   0.2500000   0.3750000), wk =   0.1875000
        k(   22) = (   0.1250000   0.2500000  -0.5000000), wk =   0.0937500
        k(   23) = (   0.1250000   0.3750000   0.3750000), wk =   0.0937500
        k(   24) = (   0.1250000   0.3750000  -0.5000000), wk =   0.0937500
        k(   25) = (   0.1250000  -0.5000000  -0.5000000), wk =   0.0234375
        k(   26) = (   0.2500000   0.2500000   0.2500000), wk =   0.0312500
        k(   27) = (   0.2500000   0.2500000   0.3750000), wk =   0.0937500
        k(   28) = (   0.2500000   0.2500000  -0.5000000), wk =   0.0468750
        k(   29) = (   0.2500000   0.3750000   0.3750000), wk =   0.0937500
        k(   30) = (   0.2500000   0.3750000  -0.5000000), wk =   0.0937500
        k(   31) = (   0.2500000  -0.5000000  -0.5000000), wk =   0.0234375
        k(   32) = (   0.3750000   0.3750000   0.3750000), wk =   0.0312500
        k(   33) = (   0.3750000   0.3750000  -0.5000000), wk =   0.0468750
        k(   34) = (   0.3750000  -0.5000000  -0.5000000), wk =   0.0234375
        k(   35) = (  -0.5000000  -0.5000000  -0.5000000), wk =   0.0039062

     Dense  grid:   479769 G-vectors     FFT dimensions: ( 100, 100, 100)

     Dynamical RAM for                 wfc:      48.24 MB

     Dynamical RAM for     wfc (w. buffer):    1736.73 MB

     Dynamical RAM for           str. fact:       5.49 MB

     Dynamical RAM for           local pot:       0.00 MB

     Dynamical RAM for          nlocal pot:     109.75 MB

     Dynamical RAM for                qrad:       3.05 MB

     Dynamical RAM for          rho,v,vnew:      11.21 MB

     Dynamical RAM for               rhoin:       3.74 MB

     Dynamical RAM for            rho*nmix:      29.28 MB

     Dynamical RAM for           G-vectors:       7.78 MB

     Dynamical RAM for          h,s,v(r/c):       2.04 MB

     Dynamical RAM for          <psi|beta>:       1.55 MB

     Dynamical RAM for                 psi:      96.49 MB

     Dynamical RAM for                hpsi:      96.49 MB

     Dynamical RAM for                spsi:      96.49 MB

     Dynamical RAM for      wfcinit/wfcrot:     126.07 MB

     Dynamical RAM for           addusdens:     384.34 MB

     Dynamical RAM for          addusforce:     469.53 MB

     Dynamical RAM for         addusstress:     367.86 MB

     Estimated static dynamical RAM per process >       1.88 GB

     Estimated max dynamical RAM per process >       2.34 GB

     Estimated total dynamical RAM >       9.35 GB

     Check: negative core charge=   -0.000001

     Initial potential from superposition of free atoms

     starting charge  351.66429, renormalised to  352.00000
     Starting wfcs are  272 randomized atomic wfcs
     Checking if some PAW data can be deallocated... 
       PAW data deallocated on    1 nodes for type:  2
       PAW data deallocated on    2 nodes for type:  3

     total cpu time spent up to now is     1606.1 secs

     Self-consistent Calculation

     iteration #  1     ecut=    40.00 Ry     beta= 0.40
     Davidson diagonalization with overlap
     ethr =  1.00E-02,  avg # of iterations =  2.8

     Threshold (ethr) on eigenvalues was too large:
     Diagonalizing with lowered threshold

     Davidson diagonalization with overlap
     ethr =  2.56E-04,  avg # of iterations =  9.1

     total cpu time spent up to now is     9675.7 secs

     total energy              =  -16565.69433347 Ry
     estimated scf accuracy    <       0.82204221 Ry

     iteration #  2     ecut=    40.00 Ry     beta= 0.40
     Davidson diagonalization with overlap
     ethr =  2.34E-04,  avg # of iterations =  2.7

     total cpu time spent up to now is    13686.2 secs

     total energy              =  -16565.82387681 Ry
     estimated scf accuracy    <       0.05286999 Ry

     iteration #  3     ecut=    40.00 Ry     beta= 0.40
     Davidson diagonalization with overlap
     c_bands:  2 eigenvalues not converged
     c_bands:  5 eigenvalues not converged
     c_bands:  4 eigenvalues not converged
     c_bands:  2 eigenvalues not converged
     c_bands:  4 eigenvalues not converged
     ethr =  1.50E-05,  avg # of iterations = 13.1

     total cpu time spent up to now is    19939.5 secs

     total energy              =  -16565.85305728 Ry
     estimated scf accuracy    <       0.01601826 Ry

     iteration #  4     ecut=    40.00 Ry     beta= 0.40
     Davidson diagonalization with overlap
     c_bands:  3 eigenvalues not converged
     ethr =  4.55E-06,  avg # of iterations =  9.2

     total cpu time spent up to now is    23980.4 secs

     total energy              =  -16565.85491884 Ry
     estimated scf accuracy    <       0.00078284 Ry

     iteration #  5     ecut=    40.00 Ry     beta= 0.40
     Davidson diagonalization with overlap
     ethr =  2.22E-07,  avg # of iterations =  6.3

     total cpu time spent up to now is    30449.8 secs

     total energy              =  -16565.85544228 Ry
     estimated scf accuracy    <       0.00035574 Ry

     iteration #  6     ecut=    40.00 Ry     beta= 0.40
     Davidson diagonalization with overlap
     ethr =  1.01E-07,  avg # of iterations =  1.5

     total cpu time spent up to now is    33606.4 secs

     total energy              =  -16565.85541222 Ry
     estimated scf accuracy    <       0.00018336 Ry

     iteration #  7     ecut=    40.00 Ry     beta= 0.40
     Davidson diagonalization with overlap
     ethr =  5.21E-08,  avg # of iterations =  4.0

     total cpu time spent up to now is    37924.8 secs

     total energy              =  -16565.85545477 Ry
     estimated scf accuracy    <       0.00005065 Ry

     iteration #  8     ecut=    40.00 Ry     beta= 0.40
     Davidson diagonalization with overlap
     ethr =  1.44E-08,  avg # of iterations =  4.3

     total cpu time spent up to now is    41366.3 secs

     total energy              =  -16565.85545270 Ry
     estimated scf accuracy    <       0.00003159 Ry

     iteration #  9     ecut=    40.00 Ry     beta= 0.40
     Davidson diagonalization with overlap
     ethr =  8.98E-09,  avg # of iterations =  2.0

     total cpu time spent up to now is    44778.9 secs

     total energy              =  -16565.85545318 Ry
     estimated scf accuracy    <       0.00000782 Ry

     iteration # 10     ecut=    40.00 Ry     beta= 0.40
     Davidson diagonalization with overlap
     ethr =  2.22E-09,  avg # of iterations =  5.3

     total cpu time spent up to now is    49157.7 secs

     total energy              =  -16565.85545595 Ry
     estimated scf accuracy    <       0.00000092 Ry

     iteration # 11     ecut=    40.00 Ry     beta= 0.40
     Davidson diagonalization with overlap
     ethr =  2.62E-10,  avg # of iterations =  5.1

     total cpu time spent up to now is    53076.9 secs

     total energy              =  -16565.85545594 Ry
     estimated scf accuracy    <       0.00000089 Ry

     iteration # 12     ecut=    40.00 Ry     beta= 0.40
     Davidson diagonalization with overlap
     ethr =  2.52E-10,  avg # of iterations =  3.0

     total cpu time spent up to now is    56595.7 secs

     total energy              =  -16565.85545599 Ry
     estimated scf accuracy    <       0.00000007 Ry

     iteration # 13     ecut=    40.00 Ry     beta= 0.40
     Davidson diagonalization with overlap
     ethr =  2.01E-11,  avg # of iterations =  5.9

     total cpu time spent up to now is    62397.8 secs

     total energy              =  -16565.85545606 Ry
     estimated scf accuracy    <       0.00000028 Ry

     iteration # 14     ecut=    40.00 Ry     beta= 0.40
     Davidson diagonalization with overlap
     ethr =  2.01E-11,  avg # of iterations =  2.0

     total cpu time spent up to now is    65826.0 secs

     total energy              =  -16565.85545606 Ry
     estimated scf accuracy    <       0.00000016 Ry

     iteration # 15     ecut=    40.00 Ry     beta= 0.40
     Davidson diagonalization with overlap
     ethr =  2.01E-11,  avg # of iterations =  4.1

     total cpu time spent up to now is    69898.0 secs

     End of self-consistent calculation

          k = 0.0000 0.0000 0.0000 ( 60005 PWs)   bands (ev):

   -18.6027 -18.6025 -18.6025 -18.6025 -18.6023 -18.6023 -18.6023 -18.6021
   -14.0198 -14.0198 -14.0198 -14.0198 -14.0198 -14.0144 -14.0144 -14.0144
   -14.0091 -14.0091 -14.0091 -14.0036 -14.0036 -14.0035 -14.0035 -14.0035
   -13.9687 -13.9687 -13.9687 -13.9686 -13.9686 -13.9686 -13.9685 -13.9685
   -13.9685 -13.9684 -13.9684 -13.9684 -13.9683 -13.9683 -13.9683 -13.9683
   -13.9683 -13.9683 -13.9681 -13.9681 -13.9681 -13.9680 -13.9680 -13.9680
    -9.3534  -9.1550  -9.1550  -9.1550  -8.9108  -8.9108  -8.9108  -8.8442
    -8.8442  -8.8442  -8.8442  -8.8442  -8.8442  -8.8438  -8.8438  -8.8438
    -8.8387  -8.8387  -8.8387  -8.6172  -8.6172  -8.6151  -8.6151  -8.6151
    -5.7337  -5.3912  -5.3912  -5.3912  -5.3782  -5.3782  -5.3782  -5.3780
    -5.3780  -5.3780  -5.3780  -5.3780  -5.3780  -5.3742  -5.3742  -5.3742
    -5.3742  -5.3742  -5.3742  -5.3709  -5.3709  -5.3709  -5.3705  -5.3705
    -5.3705  -5.2020  -5.2020  -5.2020  -4.6955  -4.6955  -4.6955  -4.1850
    -0.6542  -0.6542  -0.6542  -0.5535  -0.5535  -0.5535  -0.5535  -0.5535
    -0.5535  -0.4212  -0.4212  -0.4212   0.6156   0.6156   0.6156   0.7473
     0.7473   0.7473   0.8951   0.8951   0.8951   1.2152   1.2152   1.2152
     1.2152   1.2152   1.2152   1.3155   1.3155   1.3155   1.3155   1.3155
     1.3155   1.3639   1.3639   1.3639   1.3639   1.3639   1.3639   1.4032
     1.4032   1.4032   1.4106   1.4106   1.4296   1.4296   1.4296   1.5586
     1.5586   1.5586   1.5802   1.5802   1.5802   1.5802   1.5802   1.5802
     1.6660   1.6660   1.6660   1.8645   1.8645   1.8645   2.0594   2.0594
     2.0594   2.0716   2.0716   2.0716   2.2978   2.2978   2.2978   2.7321
     4.1457   4.1457   4.1457   4.5738   4.5738   4.5738   4.5738   4.5738
     4.5738   4.9046   4.9046   4.9046   5.9132   6.7649   6.9904   6.9904
     7.3372   7.3372   7.3372   7.3852   7.3852   7.3852   7.5080   7.5080
     7.5080   7.6153   7.6154   7.6156   7.7775   7.8620   7.8648   7.8648
     7.8648   7.8648   7.8816

     occupation numbers 
     1.0000   1.0000   1.0000   1.0000   1.0000   1.0000   1.0000   1.0000
     1.0000   1.0000   1.0000   1.0000   1.0000   1.0000   1.0000   1.0000
     1.0000   1.0000   1.0000   1.0000   1.0000   1.0000   1.0000   1.0000
     1.0000   1.0000   1.0000   1.0000   1.0000   1.0000   1.0000   1.0000
     1.0000   1.0000   1.0000   1.0000   1.0000   1.0000   1.0000   1.0000
     1.0000   1.0000   1.0000   1.0000   1.0000   1.0000   1.0000   1.0000
     1.0000   1.0000   1.0000   1.0000   1.0000   1.0000   1.0000   1.0000
     1.0000   1.0000   1.0000   1.0000   1.0000   1.0000   1.0000   1.0000
     1.0000   1.0000   1.0000   1.0000   1.0000   1.0000   1.0000   1.0000
     1.0000   1.0000   1.0000   1.0000   1.0000   1.0000   1.0000   1.0000
     1.0000   1.0000   1.0000   1.0000   1.0000   1.0000   1.0000   1.0000
     1.0000   1.0000   1.0000   1.0000   1.0000   1.0000   1.0000   1.0000
     1.0000   1.0000   1.0000   1.0000   1.0000   1.0000   1.0000   1.0000
     1.0000   1.0000   1.0000   1.0000   1.0000   1.0000   1.0000   1.0000
     1.0000   1.0000   1.0000   1.0000   1.0000   1.0000   1.0000   1.0000
     1.0000   1.0000   1.0000   1.0000   1.0000   1.0000   1.0000   1.0000
     1.0000   1.0000   1.0000   1.0000   1.0000   1.0000   1.0000   1.0000
     1.0000   1.0000   1.0000   1.0000   1.0000   1.0000   1.0000   1.0000
     1.0000   1.0000   1.0000   1.0000   1.0000   1.0000   1.0000   1.0002
     1.0002   1.0002   1.0003   1.0003   1.0003   1.0003   1.0003   1.0003
     1.0024   1.0024   1.0024   1.0509   1.0509   1.0509   0.9995   0.9995
     0.9995   0.9749   0.9749   0.9749   0.2359   0.2359   0.2359   0.0000
     0.0000   0.0000   0.0000   0.0000   0.0000   0.0000   0.0000   0.0000
     0.0000   0.0000   0.0000   0.0000   0.0000   0.0000   0.0000   0.0000
     0.0000   0.0000   0.0000   0.0000   0.0000   0.0000   0.0000   0.0000
     0.0000   0.0000   0.0000   0.0000   0.0000   0.0000   0.0000   0.0000
     0.0000   0.0000   0.0000

          k = 0.0000 0.0000 0.1250 ( 59957 PWs)   bands (ev):

   -18.6027 -18.6025 -18.6025 -18.6025 -18.6023 -18.6023 -18.6023 -18.6021
   -14.0198 -14.0197 -14.0194 -14.0194 -14.0193 -14.0146 -14.0146 -14.0140
   -14.0095 -14.0089 -14.0089 -14.0040 -14.0039 -14.0038 -14.0036 -14.0035
   -13.9687 -13.9687 -13.9687 -13.9686 -13.9686 -13.9686 -13.9684 -13.9684
   -13.9684 -13.9684 -13.9684 -13.9684 -13.9684 -13.9684 -13.9684 -13.9683
   -13.9683 -13.9683 -13.9681 -13.9681 -13.9681 -13.9680 -13.9680 -13.9680
    -9.3482  -9.1677  -9.1498  -9.1498  -8.9408  -8.9408  -8.9083  -8.8442
    -8.8442  -8.8440  -8.8440  -8.8438  -8.8438  -8.8417  -8.8389  -8.8389
    -8.8299  -8.8148  -8.8148  -8.6233  -8.6196  -8.6196  -8.6171  -8.6151
    -5.7157  -5.3907  -5.3907  -5.3904  -5.3785  -5.3785  -5.3782  -5.3782
    -5.3780  -5.3780  -5.3779  -5.3779  -5.3778  -5.3744  -5.3744  -5.3744
    -5.3744  -5.3741  -5.3741  -5.3717  -5.3711  -5.3711  -5.3710  -5.3710
    -5.3707  -5.2252  -5.1853  -5.1853  -4.7187  -4.7186  -4.6800  -4.2099
    -0.6507  -0.6507  -0.5942  -0.5577  -0.5577  -0.5490  -0.5490  -0.4952
    -0.4951  -0.4268  -0.4268  -0.3630   0.6205   0.6247   0.6247   0.7421
     0.7558   0.7558   0.8508   0.8840   0.8840   1.1204   1.1204   1.1410
     1.1410   1.2139   1.2139   1.3080   1.3080   1.3173   1.3173   1.3246
     1.3260   1.3260   1.3620   1.3620   1.3725   1.3725   1.3989   1.3989
     1.4034   1.4103   1.4337   1.4337   1.4343   1.5034   1.5034   1.5534
     1.5534   1.5534   1.5704   1.5704   1.5766   1.5766   1.5823   1.5823
     1.6588   1.6605   1.6605   1.8072   1.8693   1.8693   2.0428   2.0428
     2.0496   2.0496   2.0599   2.0711   2.2369   2.2369   2.3011   2.6487
     4.1648   4.1648   4.3424   4.5596   4.5596   4.5883   4.5883   4.7312
     4.7312   4.8941   4.8941   5.0475   5.9501   6.7927   7.0107   7.0205
     7.2223   7.3544   7.3544   7.3544   7.3973   7.4114   7.4114   7.5136
     7.5136   7.6075   7.6075   7.6089   7.7568   7.7568   7.8047   7.8243
     7.8244   7.8627   7.8788

     occupation numbers 
     1.0000   1.0000   1.0000   1.0000   1.0000   1.0000   1.0000   1.0000
     1.0000   1.0000   1.0000   1.0000   1.0000   1.0000   1.0000   1.0000
     1.0000   1.0000   1.0000   1.0000   1.0000   1.0000   1.0000   1.0000
     1.0000   1.0000   1.0000   1.0000   1.0000   1.0000   1.0000   1.0000
     1.0000   1.0000   1.0000   1.0000   1.0000   1.0000   1.0000   1.0000
     1.0000   1.0000   1.0000   1.0000   1.0000   1.0000   1.0000   1.0000
     1.0000   1.0000   1.0000   1.0000   1.0000   1.0000   1.0000   1.0000
     1.0000   1.0000   1.0000   1.0000   1.0000   1.0000   1.0000   1.0000
     1.0000   1.0000   1.0000   1.0000   1.0000   1.0000   1.0000   1.0000
     1.0000   1.0000   1.0000   1.0000   1.0000   1.0000   1.0000   1.0000
     1.0000   1.0000   1.0000   1.0000   1.0000   1.0000   1.0000   1.0000
     1.0000   1.0000   1.0000   1.0000   1.0000   1.0000   1.0000   1.0000
     1.0000   1.0000   1.0000   1.0000   1.0000   1.0000   1.0000   1.0000
     1.0000   1.0000   1.0000   1.0000   1.0000   1.0000   1.0000   1.0000
     1.0000   1.0000   1.0000   1.0000   1.0000   1.0000   1.0000   1.0000
     1.0000   1.0000   1.0000   1.0000   1.0000   1.0000   1.0000   1.0000
     1.0000   1.0000   1.0000   1.0000   1.0000   1.0000   1.0000   1.0000
     1.0000   1.0000   1.0000   1.0000   1.0000   1.0000   1.0000   1.0000
     1.0000   1.0000   1.0000   1.0000   1.0000   1.0000   1.0000   1.0002
     1.0002   1.0002   1.0003   1.0003   1.0003   1.0003   1.0003   1.0003
     1.0021   1.0022   1.0022   1.0269   1.0531   1.0531   1.0277   1.0277
     1.0170   1.0170   0.9987   0.9759   0.4229   0.4229   0.2275   0.0003
     0.0000   0.0000   0.0000   0.0000   0.0000   0.0000   0.0000   0.0000
     0.0000   0.0000   0.0000   0.0000   0.0000   0.0000   0.0000   0.0000
     0.0000   0.0000   0.0000   0.0000   0.0000   0.0000   0.0000   0.0000
     0.0000   0.0000   0.0000   0.0000   0.0000   0.0000   0.0000   0.0000
     0.0000   0.0000   0.0000

          k = 0.0000 0.0000 0.2500 ( 59961 PWs)   bands (ev):

   -18.6027 -18.6025 -18.6024 -18.6024 -18.6023 -18.6023 -18.6022 -18.6021
   -14.0198 -14.0197 -14.0186 -14.0186 -14.0182 -14.0149 -14.0149 -14.0128
   -14.0106 -14.0086 -14.0086 -14.0051 -14.0047 -14.0047 -14.0036 -14.0035
   -13.9687 -13.9687 -13.9687 -13.9687 -13.9686 -13.9686 -13.9684 -13.9684
   -13.9684 -13.9684 -13.9684 -13.9684 -13.9684 -13.9683 -13.9683 -13.9683
   -13.9683 -13.9683 -13.9681 -13.9681 -13.9681 -13.9681 -13.9681 -13.9680
    -9.3329  -9.1992  -9.1345  -9.1345  -8.9884  -8.9884  -8.9009  -8.8500
    -8.8442  -8.8442  -8.8438  -8.8438  -8.8434  -8.8434  -8.8395  -8.8395
    -8.7953  -8.7687  -8.7687  -8.6416  -8.6332  -8.6332  -8.6168  -8.6154
    -5.6638  -5.3893  -5.3893  -5.3883  -5.3800  -5.3800  -5.3781  -5.3781
    -5.3776  -5.3776  -5.3775  -5.3775  -5.3766  -5.3748  -5.3748  -5.3748
    -5.3748  -5.3739  -5.3737  -5.3737  -5.3722  -5.3722  -5.3714  -5.3714
    -5.3711  -5.2897  -5.1372  -5.1372  -4.7824  -4.7823  -4.6347  -4.2777
    -0.6405  -0.6405  -0.5694  -0.5694  -0.5359  -0.5359  -0.4426  -0.4426
    -0.4235  -0.3277  -0.3277  -0.1949   0.6344   0.6513   0.6513   0.7038
     0.7274   0.7813   0.7813   0.8512   0.8512   0.8922   0.8922   1.0432
     1.0432   1.0845   1.2106   1.2106   1.2527   1.2527   1.3225   1.3225
     1.3556   1.3556   1.3567   1.3567   1.3968   1.3968   1.4043   1.4095
     1.4476   1.4744   1.4744   1.5233   1.5233   1.5371   1.5371   1.5388
     1.5424   1.5424   1.5665   1.5665   1.5885   1.5885   1.6109   1.6109
     1.6401   1.6464   1.6464   1.6978   1.8840   1.8840   1.9872   1.9872
     1.9949   1.9949   2.0612   2.0698   2.1180   2.1180   2.3115   2.5133
     4.2174   4.2174   4.5185   4.5185   4.6287   4.6287   4.7984   4.8632
     4.8632   5.1332   5.1332   5.4262   6.0578   6.8748   6.9810   6.9877
     7.0703   7.1086   7.3320   7.3320   7.4073   7.4073   7.4336   7.4868
     7.4868   7.5310   7.5310   7.5425   7.6156   7.7206   7.7210   7.7451
     7.7451   7.8150   7.8462

     occupation numbers 
     1.0000   1.0000   1.0000   1.0000   1.0000   1.0000   1.0000   1.0000
     1.0000   1.0000   1.0000   1.0000   1.0000   1.0000   1.0000   1.0000
     1.0000   1.0000   1.0000   1.0000   1.0000   1.0000   1.0000   1.0000
     1.0000   1.0000   1.0000   1.0000   1.0000   1.0000   1.0000   1.0000
     1.0000   1.0000   1.0000   1.0000   1.0000   1.0000   1.0000   1.0000
     1.0000   1.0000   1.0000   1.0000   1.0000   1.0000   1.0000   1.0000
     1.0000   1.0000   1.0000   1.0000   1.0000   1.0000   1.0000   1.0000
     1.0000   1.0000   1.0000   1.0000   1.0000   1.0000   1.0000   1.0000
     1.0000   1.0000   1.0000   1.0000   1.0000   1.0000   1.0000   1.0000
     1.0000   1.0000   1.0000   1.0000   1.0000   1.0000   1.0000   1.0000
     1.0000   1.0000   1.0000   1.0000   1.0000   1.0000   1.0000   1.0000
     1.0000   1.0000   1.0000   1.0000   1.0000   1.0000   1.0000   1.0000
     1.0000   1.0000   1.0000   1.0000   1.0000   1.0000   1.0000   1.0000
     1.0000   1.0000   1.0000   1.0000   1.0000   1.0000   1.0000   1.0000
     1.0000   1.0000   1.0000   1.0000   1.0000   1.0000   1.0000   1.0000
     1.0000   1.0000   1.0000   1.0000   1.0000   1.0000   1.0000   1.0000
     1.0000   1.0000   1.0000   1.0000   1.0000   1.0000   1.0000   1.0000
     1.0000   1.0000   1.0000   1.0000   1.0000   1.0000   1.0000   1.0000
     1.0000   1.0000   1.0000   1.0001   1.0001   1.0001   1.0001   1.0001
     1.0001   1.0001   1.0002   1.0002   1.0004   1.0004   1.0007   1.0007
     1.0014   1.0016   1.0016   1.0046   1.0600   1.0600   1.0785   1.0785
     1.0750   1.0750   0.9962   0.9788   0.8514   0.8514   0.2023   0.0076
     0.0000   0.0000   0.0000   0.0000   0.0000   0.0000   0.0000   0.0000
     0.0000   0.0000   0.0000   0.0000   0.0000   0.0000   0.0000   0.0000
     0.0000   0.0000   0.0000   0.0000   0.0000   0.0000   0.0000   0.0000
     0.0000   0.0000   0.0000   0.0000   0.0000   0.0000   0.0000   0.0000
     0.0000   0.0000   0.0000

          k = 0.0000 0.0000 0.3750 ( 59960 PWs)   bands (ev):

   -18.6026 -18.6025 -18.6024 -18.6024 -18.6023 -18.6023 -18.6022 -18.6021
   -14.0197 -14.0197 -14.0175 -14.0175 -14.0164 -14.0155 -14.0155 -14.0124
   -14.0111 -14.0080 -14.0080 -14.0069 -14.0059 -14.0059 -14.0036 -14.0035
   -13.9687 -13.9687 -13.9686 -13.9686 -13.9686 -13.9686 -13.9685 -13.9685
   -13.9684 -13.9684 -13.9684 -13.9684 -13.9684 -13.9683 -13.9683 -13.9683
   -13.9683 -13.9683 -13.9681 -13.9681 -13.9681 -13.9681 -13.9680 -13.9680
    -9.3082  -9.2378  -9.1095  -9.1095  -9.0347  -9.0347  -8.8897  -8.8622
    -8.8441  -8.8441  -8.8439  -8.8439  -8.8425  -8.8425  -8.8404  -8.8404
    -8.7519  -8.7248  -8.7248  -8.6707  -8.6557  -8.6557  -8.6165  -8.6157
    -5.5838  -5.3871  -5.3871  -5.3850  -5.3821  -5.3821  -5.3820  -5.3773
    -5.3773  -5.3772  -5.3769  -5.3769  -5.3769  -5.3769  -5.3754  -5.3754
    -5.3754  -5.3754  -5.3751  -5.3739  -5.3739  -5.3732  -5.3732  -5.3720
    -5.3719  -5.3719  -5.0630  -5.0630  -4.8721  -4.8721  -4.5630  -4.3712
    -0.6249  -0.6249  -0.5864  -0.5864  -0.5157  -0.5157  -0.4653  -0.4653
    -0.1669  -0.0713  -0.0713   0.0657   0.4510   0.5825   0.5825   0.6554
     0.6931   0.6931   0.7057   0.7498   0.8017   0.8017   0.8235   0.8235
     0.9556   0.9556   1.2077   1.2077   1.2216   1.2216   1.3303   1.3303
     1.3488   1.3488   1.3993   1.3993   1.4055   1.4083   1.4322   1.4322
     1.4679   1.5003   1.5003   1.5059   1.5059   1.5093   1.5093   1.5172
     1.5509   1.5509   1.5986   1.5986   1.6180   1.6256   1.6288   1.6288
     1.6525   1.6525   1.7216   1.7216   1.8933   1.8933   1.9101   1.9101
     1.9208   1.9208   2.0180   2.0180   2.0631   2.0678   2.3308   2.4190
     4.2924   4.2924   4.4548   4.4548   4.6870   4.6870   4.8141   4.8141
     5.3572   5.6662   5.6662   5.9490   6.2288   6.4994   6.7100   6.8283
     6.8283   7.0075   7.1314   7.1815   7.2478   7.3935   7.4233   7.4972
     7.4972   7.5614   7.5615   7.5995   7.5997   7.6244   7.6685   7.6686
     7.7517   7.7521   7.8120

     occupation numbers 
     1.0000   1.0000   1.0000   1.0000   1.0000   1.0000   1.0000   1.0000
     1.0000   1.0000   1.0000   1.0000   1.0000   1.0000   1.0000   1.0000
     1.0000   1.0000   1.0000   1.0000   1.0000   1.0000   1.0000   1.0000
     1.0000   1.0000   1.0000   1.0000   1.0000   1.0000   1.0000   1.0000
     1.0000   1.0000   1.0000   1.0000   1.0000   1.0000   1.0000   1.0000
     1.0000   1.0000   1.0000   1.0000   1.0000   1.0000   1.0000   1.0000
     1.0000   1.0000   1.0000   1.0000   1.0000   1.0000   1.0000   1.0000
     1.0000   1.0000   1.0000   1.0000   1.0000   1.0000   1.0000   1.0000
     1.0000   1.0000   1.0000   1.0000   1.0000   1.0000   1.0000   1.0000
     1.0000   1.0000   1.0000   1.0000   1.0000   1.0000   1.0000   1.0000
     1.0000   1.0000   1.0000   1.0000   1.0000   1.0000   1.0000   1.0000
     1.0000   1.0000   1.0000   1.0000   1.0000   1.0000   1.0000   1.0000
     1.0000   1.0000   1.0000   1.0000   1.0000   1.0000   1.0000   1.0000
     1.0000   1.0000   1.0000   1.0000   1.0000   1.0000   1.0000   1.0000
     1.0000   1.0000   1.0000   1.0000   1.0000   1.0000   1.0000   1.0000
     1.0000   1.0000   1.0000   1.0000   1.0000   1.0000   1.0000   1.0000
     1.0000   1.0000   1.0000   1.0000   1.0000   1.0000   1.0000   1.0000
     1.0000   1.0000   1.0000   1.0000   1.0000   1.0000   1.0000   1.0000
     1.0000   1.0000   1.0000   1.0000   1.0000   1.0000   1.0000   1.0001
     1.0002   1.0002   1.0005   1.0005   1.0008   1.0010   1.0011   1.0011
     1.0018   1.0018   1.0071   1.0071   1.0643   1.0643   1.0715   1.0715
     1.0755   1.0755   1.0581   1.0581   0.9923   0.9829   0.1605   0.0448
     0.0000   0.0000   0.0000   0.0000   0.0000   0.0000   0.0000   0.0000
     0.0000   0.0000   0.0000   0.0000   0.0000   0.0000   0.0000   0.0000
     0.0000   0.0000   0.0000   0.0000   0.0000   0.0000   0.0000   0.0000
     0.0000   0.0000   0.0000   0.0000   0.0000   0.0000   0.0000   0.0000
     0.0000   0.0000   0.0000

          k = 0.0000 0.0000-0.5000 ( 60000 PWs)   bands (ev):

   -18.6026 -18.6026 -18.6024 -18.6024 -18.6024 -18.6024 -18.6022 -18.6022
   -14.0197 -14.0197 -14.0164 -14.0164 -14.0164 -14.0164 -14.0144 -14.0144
   -14.0090 -14.0090 -14.0071 -14.0071 -14.0070 -14.0070 -14.0035 -14.0035
   -13.9687 -13.9686 -13.9686 -13.9686 -13.9685 -13.9685 -13.9685 -13.9685
   -13.9685 -13.9685 -13.9684 -13.9684 -13.9684 -13.9684 -13.9683 -13.9683
   -13.9682 -13.9682 -13.9682 -13.9682 -13.9682 -13.9682 -13.9680 -13.9680
    -9.2757  -9.2757  -9.0758  -9.0758  -9.0758  -9.0758  -8.8762  -8.8761
    -8.8440  -8.8440  -8.8440  -8.8440  -8.8415  -8.8415  -8.8415  -8.8415
    -8.7086  -8.7086  -8.6865  -8.6865  -8.6865  -8.6865  -8.6161  -8.6161
    -5.4854  -5.4854  -5.3846  -5.3846  -5.3846  -5.3846  -5.3811  -5.3811
    -5.3762  -5.3762  -5.3762  -5.3762  -5.3761  -5.3761  -5.3761  -5.3761
    -5.3758  -5.3758  -5.3758  -5.3758  -5.3734  -5.3734  -5.3726  -5.3726
    -5.3726  -5.3726  -4.9707  -4.9707  -4.9707  -4.9707  -4.4716  -4.4715
    -0.6060  -0.6060  -0.6060  -0.6060  -0.4911  -0.4911  -0.4910  -0.4910
     0.1403   0.1404   0.2448   0.2448   0.2448   0.2448   0.3925   0.3926
     0.6804   0.6804   0.7456   0.7456   0.7456   0.7456   0.8819   0.8819
     0.8819   0.8819   1.2093   1.2093   1.2093   1.2093   1.3395   1.3395
     1.3395   1.3395   1.4069   1.4069   1.4501   1.4501   1.4501   1.4501
     1.4722   1.4722   1.4723   1.4723   1.4923   1.4923   1.5308   1.5308
     1.5308   1.5308   1.6064   1.6064   1.6122   1.6122   1.6122   1.6122
     1.7785   1.7785   1.7785   1.7785   1.8273   1.8273   1.8273   1.8273
     1.9519   1.9519   1.9519   1.9519   2.0655   2.0655   2.3635   2.3635
     4.3759   4.3759   4.3759   4.3759   4.7525   4.7525   4.7525   4.7525
     5.9408   5.9409   6.2509   6.2509   6.2510   6.2510   6.4514   6.4514
     6.5417   6.5418   7.1841   7.1841   7.2896   7.2896   7.4260   7.4260
     7.6068   7.6068   7.6069   7.6069   7.6193   7.6193   7.6193   7.6193
     7.7222   7.7224   7.7224

     occupation numbers 
     1.0000   1.0000   1.0000   1.0000   1.0000   1.0000   1.0000   1.0000
     1.0000   1.0000   1.0000   1.0000   1.0000   1.0000   1.0000   1.0000
     1.0000   1.0000   1.0000   1.0000   1.0000   1.0000   1.0000   1.0000
     1.0000   1.0000   1.0000   1.0000   1.0000   1.0000   1.0000   1.0000
     1.0000   1.0000   1.0000   1.0000   1.0000   1.0000   1.0000   1.0000
     1.0000   1.0000   1.0000   1.0000   1.0000   1.0000   1.0000   1.0000
     1.0000   1.0000   1.0000   1.0000   1.0000   1.0000   1.0000   1.0000
     1.0000   1.0000   1.0000   1.0000   1.0000   1.0000   1.0000   1.0000
     1.0000   1.0000   1.0000   1.0000   1.0000   1.0000   1.0000   1.0000
     1.0000   1.0000   1.0000   1.0000   1.0000   1.0000   1.0000   1.0000
     1.0000   1.0000   1.0000   1.0000   1.0000   1.0000   1.0000   1.0000
     1.0000   1.0000   1.0000   1.0000   1.0000   1.0000   1.0000   1.0000
     1.0000   1.0000   1.0000   1.0000   1.0000   1.0000   1.0000   1.0000
     1.0000   1.0000   1.0000   1.0000   1.0000   1.0000   1.0000   1.0000
     1.0000   1.0000   1.0000   1.0000   1.0000   1.0000   1.0000   1.0000
     1.0000   1.0000   1.0000   1.0000   1.0000   1.0000   1.0000   1.0000
     1.0000   1.0000   1.0000   1.0000   1.0000   1.0000   1.0000   1.0000
     1.0000   1.0000   1.0000   1.0000   1.0000   1.0000   1.0000   1.0000
     1.0000   1.0000   1.0000   1.0000   1.0000   1.0000   1.0001   1.0001
     1.0001   1.0001   1.0006   1.0006   1.0007   1.0007   1.0007   1.0007
     1.0181   1.0181   1.0181   1.0181   1.0345   1.0345   1.0345   1.0345
     1.0829   1.0829   1.0829   1.0829   0.9877   0.9877   0.1044   0.1043
     0.0000   0.0000   0.0000   0.0000   0.0000   0.0000   0.0000   0.0000
     0.0000   0.0000   0.0000   0.0000   0.0000   0.0000   0.0000   0.0000
     0.0000   0.0000   0.0000   0.0000   0.0000   0.0000   0.0000   0.0000
     0.0000   0.0000   0.0000   0.0000   0.0000   0.0000   0.0000   0.0000
     0.0000   0.0000   0.0000

          k = 0.0000 0.1250 0.1250 ( 59955 PWs)   bands (ev):

   -18.6027 -18.6025 -18.6025 -18.6025 -18.6023 -18.6023 -18.6023 -18.6021
   -14.0195 -14.0195 -14.0194 -14.0191 -14.0191 -14.0147 -14.0142 -14.0141
   -14.0094 -14.0093 -14.0088 -14.0042 -14.0041 -14.0039 -14.0038 -14.0038
   -13.9687 -13.9687 -13.9687 -13.9686 -13.9686 -13.9686 -13.9684 -13.9684
   -13.9684 -13.9684 -13.9684 -13.9684 -13.9684 -13.9684 -13.9684 -13.9683
   -13.9683 -13.9683 -13.9681 -13.9681 -13.9680 -13.9680 -13.9680 -13.9680
    -9.3430  -9.1626  -9.1626  -9.1447  -8.9631  -8.9381  -8.9381  -8.8530
    -8.8440  -8.8440  -8.8438  -8.8391  -8.8361  -8.8306  -8.8299  -8.8299
    -8.8149  -8.8149  -8.8011  -8.6263  -8.6241  -8.6202  -8.6197  -8.6197
    -5.6979  -5.3906  -5.3902  -5.3894  -5.3787  -5.3787  -5.3784  -5.3784
    -5.3781  -5.3780  -5.3780  -5.3779  -5.3772  -5.3748  -5.3745  -5.3745
    -5.3742  -5.3742  -5.3737  -5.3718  -5.3718  -5.3714  -5.3712  -5.3710
    -5.3710  -5.2084  -5.2084  -5.1688  -4.7418  -4.7032  -4.7032  -4.2347
    -0.6471  -0.6049  -0.5766  -0.5532  -0.5532  -0.5018  -0.4994  -0.4994
    -0.4795  -0.4324  -0.3688  -0.3688   0.6294   0.6294   0.6327   0.7430
     0.7585   0.7634   0.8433   0.8433   0.8745   1.0698   1.0868   1.0868
     1.1408   1.1408   1.1835   1.2583   1.2858   1.3124   1.3124   1.3240
     1.3297   1.3297   1.3315   1.3654   1.3706   1.3706   1.3930   1.3994
     1.3994   1.4525   1.4727   1.4727   1.5054   1.5054   1.5300   1.5368
     1.5407   1.5485   1.5640   1.5726   1.5726   1.5798   1.5798   1.5944
     1.6410   1.6548   1.6694   1.8132   1.8132   1.8732   2.0287   2.0332
     2.0386   2.0433   2.0433   2.0599   2.1743   2.2395   2.2395   2.5651
     4.1835   4.3335   4.3827   4.5742   4.5742   4.7177   4.7177   4.7325
     4.7565   4.8834   5.0372   5.0372   5.9859   6.8193   7.0360   7.0430
     7.2368   7.2368   7.3602   7.3602   7.3679   7.4157   7.4309   7.4360
     7.5191   7.5752   7.6164   7.6164   7.7069   7.7435   7.7435   7.7658
     7.7982   7.8320   7.9683

     occupation numbers 
     1.0000   1.0000   1.0000   1.0000   1.0000   1.0000   1.0000   1.0000
     1.0000   1.0000   1.0000   1.0000   1.0000   1.0000   1.0000   1.0000
     1.0000   1.0000   1.0000   1.0000   1.0000   1.0000   1.0000   1.0000
     1.0000   1.0000   1.0000   1.0000   1.0000   1.0000   1.0000   1.0000
     1.0000   1.0000   1.0000   1.0000   1.0000   1.0000   1.0000   1.0000
     1.0000   1.0000   1.0000   1.0000   1.0000   1.0000   1.0000   1.0000
     1.0000   1.0000   1.0000   1.0000   1.0000   1.0000   1.0000   1.0000
     1.0000   1.0000   1.0000   1.0000   1.0000   1.0000   1.0000   1.0000
     1.0000   1.0000   1.0000   1.0000   1.0000   1.0000   1.0000   1.0000
     1.0000   1.0000   1.0000   1.0000   1.0000   1.0000   1.0000   1.0000
     1.0000   1.0000   1.0000   1.0000   1.0000   1.0000   1.0000   1.0000
     1.0000   1.0000   1.0000   1.0000   1.0000   1.0000   1.0000   1.0000
     1.0000   1.0000   1.0000   1.0000   1.0000   1.0000   1.0000   1.0000
     1.0000   1.0000   1.0000   1.0000   1.0000   1.0000   1.0000   1.0000
     1.0000   1.0000   1.0000   1.0000   1.0000   1.0000   1.0000   1.0000
     1.0000   1.0000   1.0000   1.0000   1.0000   1.0000   1.0000   1.0000
     1.0000   1.0000   1.0000   1.0000   1.0000   1.0000   1.0000   1.0000
     1.0000   1.0000   1.0000   1.0000   1.0000   1.0000   1.0000   1.0000
     1.0000   1.0000   1.0000   1.0000   1.0000   1.0000   1.0001   1.0001
     1.0001   1.0001   1.0002   1.0003   1.0003   1.0003   1.0003   1.0005
     1.0014   1.0019   1.0026   1.0290   1.0290   1.0550   1.0467   1.0411
     1.0338   1.0270   1.0270   0.9985   0.6546   0.4139   0.4139   0.0024
     0.0000   0.0000   0.0000   0.0000   0.0000   0.0000   0.0000   0.0000
     0.0000   0.0000   0.0000   0.0000   0.0000   0.0000   0.0000   0.0000
     0.0000   0.0000   0.0000   0.0000   0.0000   0.0000   0.0000   0.0000
     0.0000   0.0000   0.0000   0.0000   0.0000   0.0000   0.0000   0.0000
     0.0000   0.0000   0.0000

          k = 0.0000 0.1250 0.2500 ( 59908 PWs)   bands (ev):

   -18.6027 -18.6025 -18.6024 -18.6024 -18.6023 -18.6023 -18.6022 -18.6021
   -14.0195 -14.0194 -14.0186 -14.0183 -14.0180 -14.0150 -14.0145 -14.0129
   -14.0105 -14.0090 -14.0085 -14.0052 -14.0050 -14.0047 -14.0039 -14.0038
   -13.9687 -13.9687 -13.9686 -13.9686 -13.9686 -13.9686 -13.9684 -13.9684
   -13.9684 -13.9684 -13.9684 -13.9684 -13.9684 -13.9684 -13.9683 -13.9683
   -13.9683 -13.9683 -13.9681 -13.9681 -13.9681 -13.9681 -13.9680 -13.9680
    -9.3277  -9.1941  -9.1474  -9.1295  -9.0056  -8.9851  -8.9301  -8.8682
    -8.8440  -8.8438  -8.8435  -8.8397  -8.8318  -8.8300  -8.8240  -8.8151
    -8.7954  -8.7696  -8.7642  -8.6431  -8.6373  -8.6333  -8.6212  -8.6199
    -5.6462  -5.3894  -5.3887  -5.3871  -5.3804  -5.3799  -5.3787  -5.3781
    -5.3779  -5.3778  -5.3774  -5.3774  -5.3760  -5.3755  -5.3750  -5.3750
    -5.3747  -5.3739  -5.3737  -5.3732  -5.3726  -5.3720  -5.3719  -5.3715
    -5.3713  -5.2725  -5.1602  -5.1211  -4.8053  -4.7669  -4.6580  -4.3021
    -0.6368  -0.5849  -0.5650  -0.5402  -0.5114  -0.4804  -0.4479  -0.4159
    -0.3849  -0.3324  -0.3204  -0.2011   0.6428   0.6546   0.6554   0.7033
     0.7315   0.7816   0.7852   0.8207   0.8456   0.8731   0.8889   1.0179
     1.0433   1.0699   1.1405   1.1684   1.2017   1.2475   1.3183   1.3274
     1.3309   1.3337   1.3467   1.3592   1.3653   1.3949   1.4010   1.4078
     1.4832   1.4933   1.4982   1.5107   1.5228   1.5229   1.5330   1.5447
     1.5630   1.5630   1.5639   1.5789   1.5886   1.6020   1.6130   1.6195
     1.6226   1.6397   1.6678   1.7088   1.8310   1.8862   1.9813   1.9815
     1.9850   1.9955   2.0446   2.0531   2.0543   2.1194   2.2476   2.4287
     4.2355   4.4006   4.5335   4.6150   4.6787   4.7812   4.8132   4.8520
     5.0069   5.1206   5.1455   5.4161   6.0910   6.8978   6.9948   6.9968
     7.0958   7.1237   7.2496   7.3041   7.3779   7.3940   7.4097   7.4529
     7.4925   7.5033   7.5361   7.5616   7.5868   7.6100   7.6986   7.7205
     7.7376   7.7387   7.7647

     occupation numbers 
     1.0000   1.0000   1.0000   1.0000   1.0000   1.0000   1.0000   1.0000
     1.0000   1.0000   1.0000   1.0000   1.0000   1.0000   1.0000   1.0000
     1.0000   1.0000   1.0000   1.0000   1.0000   1.0000   1.0000   1.0000
     1.0000   1.0000   1.0000   1.0000   1.0000   1.0000   1.0000   1.0000
     1.0000   1.0000   1.0000   1.0000   1.0000   1.0000   1.0000   1.0000
     1.0000   1.0000   1.0000   1.0000   1.0000   1.0000   1.0000   1.0000
     1.0000   1.0000   1.0000   1.0000   1.0000   1.0000   1.0000   1.0000
     1.0000   1.0000   1.0000   1.0000   1.0000   1.0000   1.0000   1.0000
     1.0000   1.0000   1.0000   1.0000   1.0000   1.0000   1.0000   1.0000
     1.0000   1.0000   1.0000   1.0000   1.0000   1.0000   1.0000   1.0000
     1.0000   1.0000   1.0000   1.0000   1.0000   1.0000   1.0000   1.0000
     1.0000   1.0000   1.0000   1.0000   1.0000   1.0000   1.0000   1.0000
     1.0000   1.0000   1.0000   1.0000   1.0000   1.0000   1.0000   1.0000
     1.0000   1.0000   1.0000   1.0000   1.0000   1.0000   1.0000   1.0000
     1.0000   1.0000   1.0000   1.0000   1.0000   1.0000   1.0000   1.0000
     1.0000   1.0000   1.0000   1.0000   1.0000   1.0000   1.0000   1.0000
     1.0000   1.0000   1.0000   1.0000   1.0000   1.0000   1.0000   1.0000
     1.0000   1.0000   1.0000   1.0000   1.0000   1.0000   1.0000   1.0000
     1.0000   1.0000   1.0000   1.0000   1.0001   1.0001   1.0001   1.0001
     1.0002   1.0002   1.0002   1.0003   1.0004   1.0006   1.0007   1.0009
     1.0009   1.0014   1.0025   1.0056   1.0360   1.0610   1.0804   1.0804
     1.0793   1.0747   1.0249   1.0109   1.0088   0.8468   0.3862   0.0381
     0.0000   0.0000   0.0000   0.0000   0.0000   0.0000   0.0000   0.0000
     0.0000   0.0000   0.0000   0.0000   0.0000   0.0000   0.0000   0.0000
     0.0000   0.0000   0.0000   0.0000   0.0000   0.0000   0.0000   0.0000
     0.0000   0.0000   0.0000   0.0000   0.0000   0.0000   0.0000   0.0000
     0.0000   0.0000   0.0000

          k = 0.0000 0.1250 0.3750 ( 59936 PWs)   bands (ev):

   -18.6026 -18.6025 -18.6024 -18.6024 -18.6023 -18.6023 -18.6022 -18.6021
   -14.0195 -14.0194 -14.0175 -14.0171 -14.0163 -14.0156 -14.0151 -14.0123
   -14.0112 -14.0083 -14.0079 -14.0070 -14.0062 -14.0058 -14.0039 -14.0038
   -13.9687 -13.9686 -13.9686 -13.9686 -13.9685 -13.9685 -13.9685 -13.9685
   -13.9684 -13.9684 -13.9684 -13.9684 -13.9684 -13.9683 -13.9683 -13.9683
   -13.9683 -13.9683 -13.9682 -13.9681 -13.9681 -13.9681 -13.9680 -13.9680
    -9.3031  -9.2328  -9.1228  -9.1048  -9.0497  -9.0308  -8.9178  -8.8852
    -8.8440  -8.8439  -8.8426  -8.8406  -8.8307  -8.8301  -8.8197  -8.8158
    -8.7523  -8.7265  -8.7231  -8.6717  -8.6592  -8.6556  -8.6210  -8.6203
    -5.5667  -5.3873  -5.3865  -5.3856  -5.3839  -5.3822  -5.3779  -5.3776
    -5.3774  -5.3772  -5.3768  -5.3767  -5.3764  -5.3762  -5.3758  -5.3757
    -5.3753  -5.3746  -5.3744  -5.3735  -5.3733  -5.3728  -5.3721  -5.3721
    -5.3720  -5.3616  -5.0859  -5.0472  -4.8950  -4.8566  -4.5864  -4.3952
    -0.6211  -0.5823  -0.5684  -0.5290  -0.5203  -0.4704  -0.4595  -0.4081
    -0.1606  -0.0771  -0.0647   0.0583   0.4547   0.5649   0.5865   0.6629
     0.6961   0.7006   0.7111   0.7283   0.7844   0.8002   0.8235   0.8375
     0.9457   0.9557   1.1418   1.1658   1.1687   1.2033   1.3366   1.3389
     1.3424   1.3495   1.3565   1.3574   1.4024   1.4036   1.4092   1.4302
     1.4471   1.4487   1.5028   1.5062   1.5099   1.5196   1.5507   1.5513
     1.5577   1.5893   1.5974   1.5980   1.6039   1.6209   1.6471   1.6512
     1.6568   1.6748   1.7118   1.7263   1.8614   1.8893   1.8960   1.9036
     1.9109   1.9218   1.9647   2.0187   2.0467   2.0517   2.2629   2.3380
     4.3096   4.4688   4.4704   4.6187   4.6739   4.8023   4.8367   4.9591
     5.3686   5.6535   5.6766   5.9384   6.2581   6.5079   6.7300   6.8098
     6.8322   7.0248   7.1237   7.1913   7.2568   7.3916   7.3951   7.4088
     7.4429   7.4818   7.5103   7.5142   7.5656   7.6089   7.6153   7.6227
     7.6229   7.6674   7.6860

     occupation numbers 
     1.0000   1.0000   1.0000   1.0000   1.0000   1.0000   1.0000   1.0000
     1.0000   1.0000   1.0000   1.0000   1.0000   1.0000   1.0000   1.0000
     1.0000   1.0000   1.0000   1.0000   1.0000   1.0000   1.0000   1.0000
     1.0000   1.0000   1.0000   1.0000   1.0000   1.0000   1.0000   1.0000
     1.0000   1.0000   1.0000   1.0000   1.0000   1.0000   1.0000   1.0000
     1.0000   1.0000   1.0000   1.0000   1.0000   1.0000   1.0000   1.0000
     1.0000   1.0000   1.0000   1.0000   1.0000   1.0000   1.0000   1.0000
     1.0000   1.0000   1.0000   1.0000   1.0000   1.0000   1.0000   1.0000
     1.0000   1.0000   1.0000   1.0000   1.0000   1.0000   1.0000   1.0000
     1.0000   1.0000   1.0000   1.0000   1.0000   1.0000   1.0000   1.0000
     1.0000   1.0000   1.0000   1.0000   1.0000   1.0000   1.0000   1.0000
     1.0000   1.0000   1.0000   1.0000   1.0000   1.0000   1.0000   1.0000
     1.0000   1.0000   1.0000   1.0000   1.0000   1.0000   1.0000   1.0000
     1.0000   1.0000   1.0000   1.0000   1.0000   1.0000   1.0000   1.0000
     1.0000   1.0000   1.0000   1.0000   1.0000   1.0000   1.0000   1.0000
     1.0000   1.0000   1.0000   1.0000   1.0000   1.0000   1.0000   1.0000
     1.0000   1.0000   1.0000   1.0000   1.0000   1.0000   1.0000   1.0000
     1.0000   1.0000   1.0000   1.0000   1.0000   1.0000   1.0000   1.0000
     1.0000   1.0000   1.0000   1.0000   1.0000   1.0001   1.0002   1.0002
     1.0002   1.0004   1.0005   1.0005   1.0006   1.0009   1.0016   1.0018
     1.0020   1.0029   1.0060   1.0078   1.0494   1.0625   1.0655   1.0688
     1.0718   1.0759   1.0832   1.0574   1.0217   1.0134   0.3364   0.1466
     0.0000   0.0000   0.0000   0.0000   0.0000   0.0000   0.0000   0.0000
     0.0000   0.0000   0.0000   0.0000   0.0000   0.0000   0.0000   0.0000
     0.0000   0.0000   0.0000   0.0000   0.0000   0.0000   0.0000   0.0000
     0.0000   0.0000   0.0000   0.0000   0.0000   0.0000   0.0000   0.0000
     0.0000   0.0000   0.0000

          k = 0.0000 0.1250-0.5000 ( 59944 PWs)   bands (ev):

   -18.6026 -18.6026 -18.6024 -18.6024 -18.6024 -18.6024 -18.6022 -18.6022
   -14.0195 -14.0194 -14.0164 -14.0164 -14.0160 -14.0160 -14.0143 -14.0143
   -14.0091 -14.0091 -14.0074 -14.0074 -14.0070 -14.0070 -14.0039 -14.0038
   -13.9687 -13.9686 -13.9686 -13.9686 -13.9685 -13.9685 -13.9685 -13.9685
   -13.9685 -13.9685 -13.9684 -13.9684 -13.9684 -13.9683 -13.9683 -13.9683
   -13.9682 -13.9682 -13.9682 -13.9682 -13.9682 -13.9682 -13.9681 -13.9680
    -9.2706  -9.2706  -9.0897  -9.0897  -9.0714  -9.0714  -8.9023  -8.9022
    -8.8439  -8.8439  -8.8416  -8.8416  -8.8303  -8.8303  -8.8171  -8.8171
    -8.7093  -8.7093  -8.6892  -8.6892  -8.6860  -8.6860  -8.6207  -8.6206
    -5.4693  -5.4693  -5.3848  -5.3848  -5.3835  -5.3835  -5.3803  -5.3803
    -5.3769  -5.3769  -5.3766  -5.3766  -5.3765  -5.3765  -5.3763  -5.3763
    -5.3760  -5.3760  -5.3751  -5.3751  -5.3731  -5.3731  -5.3727  -5.3727
    -5.3724  -5.3724  -4.9936  -4.9935  -4.9552  -4.9552  -4.4952  -4.4951
    -0.6020  -0.6020  -0.5490  -0.5490  -0.4959  -0.4959  -0.4344  -0.4343
     0.1457   0.1458   0.2362   0.2363   0.2506   0.2507   0.3826   0.3827
     0.6869   0.6869   0.7405   0.7405   0.7469   0.7469   0.8819   0.8819
     0.8819   0.8819   1.1483   1.1483   1.1788   1.1789   1.3394   1.3394
     1.3481   1.3481   1.3968   1.3968   1.3986   1.3986   1.4067   1.4067
     1.4529   1.4529   1.4699   1.4699   1.5322   1.5322   1.5340   1.5340
     1.5822   1.5822   1.5987   1.5987   1.6034   1.6034   1.6428   1.6428
     1.7760   1.7760   1.7893   1.7893   1.8088   1.8088   1.8293   1.8294
     1.9057   1.9058   1.9523   1.9523   2.0491   2.0491   2.2895   2.2895
     4.3922   4.3922   4.5453   4.5454   4.7400   4.7400   4.8995   4.8995
     5.9505   5.9506   6.2366   6.2367   6.2595   6.2596   6.4740   6.4740
     6.5316   6.5317   7.1939   7.1939   7.3096   7.3096   7.4248   7.4249
     7.4539   7.4539   7.4996   7.4996   7.5800   7.5801   7.5877   7.5877
     7.6090   7.6090   7.7037

     occupation numbers 
     1.0000   1.0000   1.0000   1.0000   1.0000   1.0000   1.0000   1.0000
     1.0000   1.0000   1.0000   1.0000   1.0000   1.0000   1.0000   1.0000
     1.0000   1.0000   1.0000   1.0000   1.0000   1.0000   1.0000   1.0000
     1.0000   1.0000   1.0000   1.0000   1.0000   1.0000   1.0000   1.0000
     1.0000   1.0000   1.0000   1.0000   1.0000   1.0000   1.0000   1.0000
     1.0000   1.0000   1.0000   1.0000   1.0000   1.0000   1.0000   1.0000
     1.0000   1.0000   1.0000   1.0000   1.0000   1.0000   1.0000   1.0000
     1.0000   1.0000   1.0000   1.0000   1.0000   1.0000   1.0000   1.0000
     1.0000   1.0000   1.0000   1.0000   1.0000   1.0000   1.0000   1.0000
     1.0000   1.0000   1.0000   1.0000   1.0000   1.0000   1.0000   1.0000
     1.0000   1.0000   1.0000   1.0000   1.0000   1.0000   1.0000   1.0000
     1.0000   1.0000   1.0000   1.0000   1.0000   1.0000   1.0000   1.0000
     1.0000   1.0000   1.0000   1.0000   1.0000   1.0000   1.0000   1.0000
     1.0000   1.0000   1.0000   1.0000   1.0000   1.0000   1.0000   1.0000
     1.0000   1.0000   1.0000   1.0000   1.0000   1.0000   1.0000   1.0000
     1.0000   1.0000   1.0000   1.0000   1.0000   1.0000   1.0000   1.0000
     1.0000   1.0000   1.0000   1.0000   1.0000   1.0000   1.0000   1.0000
     1.0000   1.0000   1.0000   1.0000   1.0000   1.0000   1.0000   1.0000
     1.0000   1.0000   1.0000   1.0000   1.0001   1.0001   1.0001   1.0001
     1.0003   1.0003   1.0005   1.0005   1.0006   1.0006   1.0015   1.0015
     1.0174   1.0174   1.0211   1.0211   1.0274   1.0274   1.0353   1.0353
     1.0697   1.0697   1.0829   1.0829   1.0177   1.0177   0.2581   0.2580
     0.0000   0.0000   0.0000   0.0000   0.0000   0.0000   0.0000   0.0000
     0.0000   0.0000   0.0000   0.0000   0.0000   0.0000   0.0000   0.0000
     0.0000   0.0000   0.0000   0.0000   0.0000   0.0000   0.0000   0.0000
     0.0000   0.0000   0.0000   0.0000   0.0000   0.0000   0.0000   0.0000
     0.0000   0.0000   0.0000

          k = 0.0000 0.2500 0.2500 ( 59878 PWs)   bands (ev):

   -18.6026 -18.6025 -18.6025 -18.6024 -18.6023 -18.6023 -18.6023 -18.6021
   -14.0189 -14.0186 -14.0186 -14.0174 -14.0174 -14.0153 -14.0133 -14.0133
   -14.0102 -14.0101 -14.0082 -14.0060 -14.0059 -14.0047 -14.0047 -14.0043
   -13.9687 -13.9686 -13.9686 -13.9686 -13.9686 -13.9686 -13.9684 -13.9684
[...]
     atom   27 type  2   force =    -0.00000000    0.00020855   -0.00000000
     atom   28 type  2   force =    -0.00000000    0.00021075    0.00000000
     atom   29 type  2   force =     0.00000000   -0.00021075   -0.00000000
     atom   30 type  2   force =     0.00000000   -0.00021115    0.00000000
     atom   31 type  2   force =     0.00000000    0.00021075   -0.00000000
     atom   32 type  2   force =    -0.00000000    0.00021115   -0.00000000
     atom   33 type  2   force =    -0.00020855   -0.00000000   -0.00000000
     atom   34 type  2   force =    -0.00021075   -0.00000000    0.00000000
     atom   35 type  2   force =    -0.00021075    0.00000000   -0.00000000
     atom   36 type  2   force =    -0.00021115    0.00000000    0.00000000
     atom   37 type  2   force =     0.00020855   -0.00000000   -0.00000000
     atom   38 type  2   force =     0.00021075   -0.00000000    0.00000000
     atom   39 type  2   force =     0.00021075    0.00000000   -0.00000000
     atom   40 type  2   force =     0.00021115   -0.00000000   -0.00000000
     The local contribution  to forces
     atom    1 type  1   force =     0.00005039    0.00005039    0.00005039
     atom    2 type  1   force =     0.00005039    0.00005039   -0.00005039
     atom    3 type  1   force =     0.00005039   -0.00005039    0.00005039
     atom    4 type  1   force =     0.00005039   -0.00005039   -0.00005039
     atom    5 type  1   force =    -0.00005039    0.00005039    0.00005039
     atom    6 type  1   force =    -0.00005039    0.00005039   -0.00005039
     atom    7 type  1   force =    -0.00005039   -0.00005039    0.00005039
     atom    8 type  1   force =    -0.00005039   -0.00005039   -0.00005039
     atom    9 type  3   force =     0.00000000    0.00000000    0.00000000
     atom   10 type  3   force =     0.00000000    0.00000000    0.00000000
     atom   11 type  3   force =     0.00000000    0.00000000   -0.00000000
     atom   12 type  3   force =     0.00000000    0.00000000    0.00000000
     atom   13 type  3   force =     0.00000000    0.00000000    0.00000000
     atom   14 type  3   force =     0.00000000    0.00000000    0.00000000
     atom   15 type  3   force =     0.00000000    0.00000000   -0.00000000
     atom   16 type  3   force =     0.00000000    0.00000000    0.00000000
     atom   17 type  2   force =     0.00000000    0.00000000    0.00020431
     atom   18 type  2   force =     0.00000000    0.00000000   -0.00020431
     atom   19 type  2   force =    -0.00000000    0.00000000    0.00020708
     atom   20 type  2   force =     0.00000000    0.00000000   -0.00020708
     atom   21 type  2   force =     0.00000000    0.00000000    0.00020708
     atom   22 type  2   force =     0.00000000    0.00000000   -0.00020708
     atom   23 type  2   force =     0.00000000    0.00000000    0.00020640
     atom   24 type  2   force =    -0.00000000   -0.00000000   -0.00020640
     atom   25 type  2   force =     0.00000000    0.00020431   -0.00000000
     atom   26 type  2   force =    -0.00000000    0.00020708    0.00000000
     atom   27 type  2   force =     0.00000000   -0.00020431   -0.00000000
     atom   28 type  2   force =     0.00000000   -0.00020708    0.00000000
     atom   29 type  2   force =     0.00000000    0.00020708    0.00000000
     atom   30 type  2   force =     0.00000000    0.00020640    0.00000000
     atom   31 type  2   force =     0.00000000   -0.00020708    0.00000000
     atom   32 type  2   force =     0.00000000   -0.00020640    0.00000000
     atom   33 type  2   force =     0.00020431   -0.00000000   -0.00000000
     atom   34 type  2   force =     0.00020708    0.00000000   -0.00000000
     atom   35 type  2   force =     0.00020708   -0.00000000   -0.00000000
     atom   36 type  2   force =     0.00020640    0.00000000    0.00000000
     atom   37 type  2   force =    -0.00020431   -0.00000000    0.00000000
     atom   38 type  2   force =    -0.00020708    0.00000000    0.00000000
     atom   39 type  2   force =    -0.00020708    0.00000000   -0.00000000
     atom   40 type  2   force =    -0.00020640    0.00000000    0.00000000
     The core correction contribution to forces
     atom    1 type  1   force =    -0.00000004   -0.00000004   -0.00000004
     atom    2 type  1   force =    -0.00000004   -0.00000004    0.00000004
     atom    3 type  1   force =    -0.00000004    0.00000004   -0.00000004
     atom    4 type  1   force =    -0.00000004    0.00000004    0.00000004
     atom    5 type  1   force =     0.00000004   -0.00000004   -0.00000004
     atom    6 type  1   force =     0.00000004   -0.00000004    0.00000004
     atom    7 type  1   force =     0.00000004    0.00000004   -0.00000004
     atom    8 type  1   force =     0.00000004    0.00000004    0.00000004
     atom    9 type  3   force =     0.00000000    0.00000000    0.00000000
     atom   10 type  3   force =    -0.00000000   -0.00000000    0.00000000
     atom   11 type  3   force =    -0.00000000    0.00000000   -0.00000000
     atom   12 type  3   force =     0.00000000   -0.00000000   -0.00000000
     atom   13 type  3   force =     0.00000000   -0.00000000   -0.00000000
     atom   14 type  3   force =    -0.00000000    0.00000000   -0.00000000
     atom   15 type  3   force =    -0.00000000   -0.00000000    0.00000000
     atom   16 type  3   force =     0.00000000    0.00000000    0.00000000
     atom   17 type  2   force =     0.00000000    0.00000000    0.00000029
     atom   18 type  2   force =     0.00000000    0.00000000   -0.00000029
     atom   19 type  2   force =     0.00000000   -0.00000000    0.00000050
     atom   20 type  2   force =     0.00000000   -0.00000000   -0.00000050
     atom   21 type  2   force =    -0.00000000    0.00000000    0.00000050
     atom   22 type  2   force =    -0.00000000    0.00000000   -0.00000050
     atom   23 type  2   force =    -0.00000000   -0.00000000    0.00000034
     atom   24 type  2   force =     0.00000000    0.00000000   -0.00000034
     atom   25 type  2   force =     0.00000000    0.00000029    0.00000000
     atom   26 type  2   force =     0.00000000    0.00000050   -0.00000000
     atom   27 type  2   force =     0.00000000   -0.00000029    0.00000000
     atom   28 type  2   force =     0.00000000   -0.00000050   -0.00000000
     atom   29 type  2   force =    -0.00000000    0.00000050    0.00000000
     atom   30 type  2   force =    -0.00000000    0.00000034   -0.00000000
     atom   31 type  2   force =    -0.00000000   -0.00000050    0.00000000
     atom   32 type  2   force =     0.00000000   -0.00000034    0.00000000
     atom   33 type  2   force =     0.00000029    0.00000000    0.00000000
     atom   34 type  2   force =     0.00000050    0.00000000   -0.00000000
     atom   35 type  2   force =     0.00000050   -0.00000000    0.00000000
     atom   36 type  2   force =     0.00000034   -0.00000000   -0.00000000
     atom   37 type  2   force =    -0.00000029    0.00000000    0.00000000
     atom   38 type  2   force =    -0.00000050    0.00000000   -0.00000000
     atom   39 type  2   force =    -0.00000050   -0.00000000    0.00000000
     atom   40 type  2   force =    -0.00000034    0.00000000    0.00000000
     The Hubbard contrib.    to forces
     atom    1 type  1   force =     0.00000000    0.00000000    0.00000000
     atom    2 type  1   force =     0.00000000    0.00000000    0.00000000
     atom    3 type  1   force =     0.00000000    0.00000000    0.00000000
     atom    4 type  1   force =     0.00000000    0.00000000    0.00000000
     atom    5 type  1   force =     0.00000000    0.00000000    0.00000000
     atom    6 type  1   force =     0.00000000    0.00000000    0.00000000
     atom    7 type  1   force =     0.00000000    0.00000000    0.00000000
     atom    8 type  1   force =     0.00000000    0.00000000    0.00000000
     atom    9 type  3   force =     0.00000000    0.00000000    0.00000000
     atom   10 type  3   force =     0.00000000    0.00000000    0.00000000
     atom   11 type  3   force =     0.00000000    0.00000000    0.00000000
     atom   12 type  3   force =     0.00000000    0.00000000    0.00000000
     atom   13 type  3   force =     0.00000000    0.00000000    0.00000000
     atom   14 type  3   force =     0.00000000    0.00000000    0.00000000
     atom   15 type  3   force =     0.00000000    0.00000000    0.00000000
     atom   16 type  3   force =     0.00000000    0.00000000    0.00000000
     atom   17 type  2   force =     0.00000000    0.00000000    0.00000000
     atom   18 type  2   force =     0.00000000    0.00000000    0.00000000
     atom   19 type  2   force =     0.00000000    0.00000000    0.00000000
     atom   20 type  2   force =     0.00000000    0.00000000    0.00000000
     atom   21 type  2   force =     0.00000000    0.00000000    0.00000000
     atom   22 type  2   force =     0.00000000    0.00000000    0.00000000
     atom   23 type  2   force =     0.00000000    0.00000000    0.00000000
     atom   24 type  2   force =     0.00000000    0.00000000    0.00000000
     atom   25 type  2   force =     0.00000000    0.00000000    0.00000000
     atom   26 type  2   force =     0.00000000    0.00000000    0.00000000
     atom   27 type  2   force =     0.00000000    0.00000000    0.00000000
     atom   28 type  2   force =     0.00000000    0.00000000    0.00000000
     atom   29 type  2   force =     0.00000000    0.00000000    0.00000000
     atom   30 type  2   force =     0.00000000    0.00000000    0.00000000
     atom   31 type  2   force =     0.00000000    0.00000000    0.00000000
     atom   32 type  2   force =     0.00000000    0.00000000    0.00000000
     atom   33 type  2   force =     0.00000000    0.00000000    0.00000000
     atom   34 type  2   force =     0.00000000    0.00000000    0.00000000
     atom   35 type  2   force =     0.00000000    0.00000000    0.00000000
     atom   36 type  2   force =     0.00000000    0.00000000    0.00000000
     atom   37 type  2   force =     0.00000000    0.00000000    0.00000000
     atom   38 type  2   force =     0.00000000    0.00000000    0.00000000
     atom   39 type  2   force =     0.00000000    0.00000000    0.00000000
     atom   40 type  2   force =     0.00000000    0.00000000    0.00000000
     The SCF correction term to forces
     atom    1 type  1   force =    -0.00000174   -0.00000174   -0.00000174
     atom    2 type  1   force =    -0.00000174   -0.00000174    0.00000174
     atom    3 type  1   force =    -0.00000174    0.00000174   -0.00000174
     atom    4 type  1   force =    -0.00000174    0.00000174    0.00000174
     atom    5 type  1   force =     0.00000174   -0.00000174   -0.00000174
     atom    6 type  1   force =     0.00000174   -0.00000174    0.00000174
     atom    7 type  1   force =     0.00000174    0.00000174   -0.00000174
     atom    8 type  1   force =     0.00000174    0.00000174    0.00000174
     atom    9 type  3   force =    -0.00000000   -0.00000000   -0.00000000
     atom   10 type  3   force =     0.00000000   -0.00000000   -0.00000000
     atom   11 type  3   force =     0.00000000    0.00000000   -0.00000000
     atom   12 type  3   force =     0.00000000   -0.00000000   -0.00000000
     atom   13 type  3   force =     0.00000000    0.00000000   -0.00000000
     atom   14 type  3   force =    -0.00000000   -0.00000000   -0.00000000
     atom   15 type  3   force =     0.00000000    0.00000000   -0.00000000
     atom   16 type  3   force =     0.00000000   -0.00000000   -0.00000000
     atom   17 type  2   force =     0.00000000   -0.00000000   -0.00000200
     atom   18 type  2   force =     0.00000000    0.00000000    0.00000200
     atom   19 type  2   force =    -0.00000000   -0.00000000   -0.00000294
     atom   20 type  2   force =    -0.00000000   -0.00000000    0.00000294
     atom   21 type  2   force =     0.00000000   -0.00000000   -0.00000294
     atom   22 type  2   force =     0.00000000    0.00000000    0.00000294
     atom   23 type  2   force =    -0.00000000   -0.00000000   -0.00000178
     atom   24 type  2   force =     0.00000000   -0.00000000    0.00000178
     atom   25 type  2   force =     0.00000000   -0.00000200   -0.00000000
     atom   26 type  2   force =    -0.00000000   -0.00000294    0.00000000
     atom   27 type  2   force =     0.00000000    0.00000200    0.00000000
     atom   28 type  2   force =     0.00000000    0.00000294    0.00000000
     atom   29 type  2   force =     0.00000000   -0.00000294   -0.00000000
     atom   30 type  2   force =     0.00000000   -0.00000178    0.00000000
     atom   31 type  2   force =     0.00000000    0.00000294    0.00000000
     atom   32 type  2   force =    -0.00000000    0.00000178    0.00000000
     atom   33 type  2   force =    -0.00000200   -0.00000000    0.00000000
     atom   34 type  2   force =    -0.00000294    0.00000000    0.00000000
     atom   35 type  2   force =    -0.00000294   -0.00000000    0.00000000
     atom   36 type  2   force =    -0.00000178   -0.00000000    0.00000000
     atom   37 type  2   force =     0.00000200   -0.00000000    0.00000000
     atom   38 type  2   force =     0.00000294    0.00000000    0.00000000
     atom   39 type  2   force =     0.00000294   -0.00000000    0.00000000
     atom   40 type  2   force =     0.00000178   -0.00000000    0.00000000

     Total force =     0.000020     Total SCF correction =     0.000015
     SCF correction compared to forces is large: reduce conv_thr to get better values


     Computing stress (Cartesian axis) and pressure

          total   stress  (Ry/bohr**3)                   (kbar)     P=       -1.95
  -0.00001327   0.00000000   0.00000000           -1.95        0.00        0.00
   0.00000000  -0.00001327   0.00000000            0.00       -1.95        0.00
   0.00000000   0.00000000  -0.00001327            0.00        0.00       -1.95

     kinetic stress (kbar)   3450.69      0.00      0.00
                                0.00   3450.69      0.00
                                0.00      0.00   3450.69

     local   stress (kbar)   -368.80     -0.00     -0.00
                               -0.00   -368.80     -0.00
                               -0.00     -0.00   -368.80

     nonloc. stress (kbar)    892.98      0.00      0.00
                                0.00    892.98      0.00
                                0.00      0.00    892.98

     hartree stress (kbar)   1917.81     -0.00      0.00
                               -0.00   1917.81      0.00
                                0.00      0.00   1917.81

     exc-cor stress (kbar)  12007.57      0.00      0.00
                                0.00  12007.57      0.00
                                0.00      0.00  12007.57

     corecor stress (kbar) -13606.18     -0.00     -0.00
                               -0.00 -13606.18      0.00
                               -0.00      0.00 -13606.18

     ewald   stress (kbar)  -4296.03     -0.00     -0.00
                               -0.00  -4296.03     -0.00
                               -0.00     -0.00  -4296.03

     hubbard stress (kbar)      0.00      0.00      0.00
                                0.00      0.00      0.00
                                0.00      0.00      0.00

     DFT-D   stress (kbar)      0.00      0.00      0.00
                                0.00      0.00      0.00
                                0.00      0.00      0.00

     XDM     stress (kbar)      0.00      0.00      0.00
                                0.00      0.00      0.00
                                0.00      0.00      0.00

     dft-nl  stress (kbar)      0.00      0.00      0.00
                                0.00      0.00      0.00
                                0.00      0.00      0.00

     TS-vdW  stress (kbar)      0.00      0.00      0.00
                                0.00      0.00      0.00
                                0.00      0.00      0.00



     Writing output data file ../../out/aiida.save/

     init_run     :   1585.12s CPU   1605.84s WALL (       1 calls)
     electrons    :  67728.51s CPU  68291.93s WALL (       1 calls)
     forces       :    857.51s CPU    862.15s WALL (       1 calls)
     stress       :    937.19s CPU    944.55s WALL (       1 calls)

     Called by init_run:
     wfcinit      :   1579.41s CPU   1599.36s WALL (       1 calls)
     wfcinit:atom :      1.40s CPU      2.17s WALL (      35 calls)
     wfcinit:wfcr :   1569.24s CPU   1587.58s WALL (      35 calls)
     potinit      :      1.60s CPU      1.71s WALL (       1 calls)
     hinit0       :      0.45s CPU      0.49s WALL (       1 calls)

     Called by electrons:
     c_bands      :  61767.93s CPU  62260.99s WALL (      16 calls)
     sum_band     :   5891.51s CPU   5957.54s WALL (      16 calls)
     v_of_rho     :      5.28s CPU      5.45s WALL (      16 calls)
     v_h          :      0.56s CPU      0.57s WALL (      16 calls)
     v_xc         :      5.44s CPU      5.63s WALL (      18 calls)
     newd         :     48.84s CPU     53.54s WALL (      16 calls)
     PAW_pot      :     17.47s CPU     17.57s WALL (      16 calls)
     mix_rho      :      2.16s CPU      2.18s WALL (      16 calls)

     Called by c_bands:
     init_us_2    :     98.34s CPU     99.08s WALL (    1225 calls)
     cegterg      :  61531.97s CPU  62023.48s WALL (     560 calls)

     Called by sum_band:
     sum_band:wei :      0.09s CPU      0.10s WALL (      16 calls)
     sum_band:loo :   5814.34s CPU   5874.11s WALL (      16 calls)
     sum_band:buf :     20.12s CPU     20.27s WALL (     560 calls)
     sum_band:ini :     45.76s CPU     46.14s WALL (     560 calls)
     sum_band:cal :   3889.48s CPU   3918.71s WALL (     560 calls)
     sum_band:bec :      1.66s CPU      1.66s WALL (     560 calls)
     addusdens    :     75.10s CPU     81.24s WALL (      16 calls)
     addusd:skk   :      0.55s CPU      0.79s WALL (      48 calls)
     addusd:dgemm :     49.41s CPU     54.19s WALL (      48 calls)
     addusd:qvan2 :     24.41s CPU     24.70s WALL (      48 calls)

     Called by *egterg:
     cdiaghg      :    516.19s CPU    520.27s WALL (    3342 calls)
     cegterg:over :   6867.99s CPU   6899.43s WALL (    2817 calls)
     cegterg:upda :   3848.03s CPU   3876.32s WALL (    2817 calls)
     cegterg:last :  10055.14s CPU  10103.31s WALL (    1239 calls)
     cdiaghg:chol :     29.61s CPU     29.73s WALL (    3342 calls)
     cdiaghg:inve :      2.08s CPU      2.12s WALL (    3342 calls)
     cdiaghg:para :    176.66s CPU    179.09s WALL (    6684 calls)
     h_psi        :  29204.43s CPU  29498.45s WALL (    3412 calls)
     s_psi        :  10244.05s CPU  10300.96s WALL (    3412 calls)
     g_psi        :     37.01s CPU     37.22s WALL (    2817 calls)

     Called by h_psi:
     h_psi:calbec :  10273.15s CPU  10329.18s WALL (    3412 calls)
     vloc_psi     :   8628.49s CPU   8796.19s WALL (    3412 calls)
     add_vuspsi   :  10276.47s CPU  10333.71s WALL (    3412 calls)

     General routines
     calbec       :  15242.29s CPU  15333.22s WALL (    4147 calls)
     fft          :      4.70s CPU      4.92s WALL (     202 calls)
     ffts         :      0.48s CPU      0.51s WALL (      16 calls)
     fftw         :   7972.04s CPU   8102.98s WALL (  742136 calls)

     Parallel routines
     fft_scatt_xy :   1881.01s CPU   1911.29s WALL (  742354 calls)
     fft_scatt_yz :    703.66s CPU    738.59s WALL (  742354 calls)

     PAW routines
     PAW_pot      :     17.47s CPU     17.57s WALL (      16 calls)
     PAW_symme    :      0.05s CPU      0.05s WALL (      32 calls)

     PWSCF        :     19h45m CPU     19h55m WALL


   This run was terminated on:   4:27:30  11Apr2024            

=------------------------------------------------------------------------------=
   JOB DONE.
=------------------------------------------------------------------------------=
