### Running on host: fes33

     Program PWSCF v.6.7MaX starts on  3Apr2024 at 19:42:15 

     This program is part of the open-source Quantum ESPRESSO suite
     for quantum simulation of materials; please cite
         "P. Giannozzi et al., J. Phys.:Condens. Matter 21 395502 (2009);
         "P. Giannozzi et al., J. Phys.:Condens. Matter 29 465901 (2017);
          URL http://www.quantum-espresso.org", 
     in publications or presentations arising from this work. More details at
     http://www.quantum-espresso.org/quote

     Parallel version (MPI), running on     3 processors

     MPI processes distributed on     1 nodes
     R & G space division:  proc/nbgrp/npool/nimage =       3
     Reading input from pwscf_kpoints-4.in

     Current dimensions of program PWSCF are:
     Max number of different atomic species (ntypx) = 10
     Max number of k-points (npk) =  40000
     Max angular momentum in pseudopotentials (lmaxx) =  3
     file Pb.pbe-dn-kjpaw_psl.0.2.2.UPF: wavefunction(s)  6S renormalized

     Subspace diagonalization in iterative solution of the eigenvalue problem:
     a serial algorithm will be used

     Found symmetry operation: I + (  0.0000  0.0000  0.5000)
     This is a supercell, fractional translations are disabled
     Message from routine setup:
     using ibrav=0 with symmetry is DISCOURAGED, use correct ibrav instead

     Parallelization info
     --------------------
     sticks:   dense  smooth     PW     G-vecs:    dense   smooth      PW
     Min        2471    2471    664               159923   159923   22210
     Max        2475    2475    665               159923   159923   22213
     Sum        7417    7417   1993               479769   479769   66635



     bravais-lattice index     =            0
     lattice parameter (alat)  =      24.1188  a.u.
     unit-cell volume          =   14030.3801 (a.u.)^3
     number of atoms/cell      =           40
     number of atomic types    =            3
     number of electrons       =       352.00
     number of Kohn-Sham states=          211
     kinetic-energy cutoff     =      40.0000  Ry
     charge density cutoff     =     160.0000  Ry
     scf convergence threshold =      8.0E-09
     mixing beta               =       0.4000
     number of iterations used =            8  plain     mixing
     Exchange-correlation= SLA  PW   PBX  PBC
                           (   1   4   3   4   0   0   0)

     celldm(1)=  24.118843  celldm(2)=   0.000000  celldm(3)=   0.000000
     celldm(4)=   0.000000  celldm(5)=   0.000000  celldm(6)=   0.000000

     crystal axes: (cart. coord. in units of alat)
               a(1) = (   1.000000   0.000000   0.000000 )  
               a(2) = (   0.000000   1.000000   0.000000 )  
               a(3) = (   0.000000   0.000000   1.000000 )  

     reciprocal axes: (cart. coord. in units 2 pi/alat)
               b(1) = (  1.000000  0.000000  0.000000 )  
               b(2) = (  0.000000  1.000000  0.000000 )  
               b(3) = (  0.000000  0.000000  1.000000 )  


     PseudoPot. # 1 for Cs read from file:
     ../../pseudo/Cs_pbe_v1.uspp.F.UPF
     MD5 check sum: 3476d69cb178dfad3ffaa59df4e07ca4
     Pseudo is Ultrasoft + core correction, Zval =  9.0
     Generated by new atomic code, or converted to UPF format
     Using radial grid of  905 points,  6 beta functions with: 
                l(1) =   0
                l(2) =   0
                l(3) =   1
                l(4) =   1
                l(5) =   2
                l(6) =   2
     Q(r) pseudized with  6 coefficients,  rinner =    1.500   1.500   1.500
                                                       1.500   1.500

     PseudoPot. # 2 for I  read from file:
     ../../pseudo/I.pbe-n-kjpaw_psl.0.2.UPF
     MD5 check sum: d4ef18d9c8f18dc85e5843bca1e50dc0
     Pseudo is Projector augmented-wave + core cor, Zval =  7.0
     Generated using "atomic" code by A. Dal Corso  v.5.0.99 svn rev. 10869
     Shape of augmentation charge: PSQ
     Using radial grid of 1247 points,  4 beta functions with: 
                l(1) =   0
                l(2) =   0
                l(3) =   1
                l(4) =   1
     Q(r) pseudized with 0 coefficients 


     PseudoPot. # 3 for Pb read from file:
     ../../pseudo/Pb.pbe-dn-kjpaw_psl.0.2.2.UPF
     MD5 check sum: 9d431e6316058b74ade52399a6cf67da
     Pseudo is Projector augmented-wave + core cor, Zval = 14.0
     Generated using "atomic" code by A. Dal Corso  v.5.0.99 svn rev. 10869
     Shape of augmentation charge: PSQ
     Using radial grid of 1281 points,  6 beta functions with: 
                l(1) =   0
                l(2) =   0
                l(3) =   1
                l(4) =   1
                l(5) =   2
                l(6) =   2
     Q(r) pseudized with 0 coefficients 


     atomic species   valence    mass     pseudopotential
        Cs             9.00   132.90545     Cs( 1.00)
        I              7.00   126.90447     I ( 1.00)
        Pb            14.00   207.20000     Pb( 1.00)

     48 Sym. Ops., with inversion, found


                                    s                        frac. trans.

      isym =  1     identity                                     

 cryst.   s( 1) = (     1          0          0      )
                  (     0          1          0      )
                  (     0          0          1      )

 cart.    s( 1) = (  1.0000000  0.0000000  0.0000000 )
                  (  0.0000000  1.0000000  0.0000000 )
                  (  0.0000000  0.0000000  1.0000000 )


      isym =  2     180 deg rotation - cart. axis [0,0,1]        

 cryst.   s( 2) = (    -1          0          0      )
                  (     0         -1          0      )
                  (     0          0          1      )

 cart.    s( 2) = ( -1.0000000  0.0000000  0.0000000 )
                  (  0.0000000 -1.0000000  0.0000000 )
                  (  0.0000000  0.0000000  1.0000000 )


      isym =  3     180 deg rotation - cart. axis [0,1,0]        

 cryst.   s( 3) = (    -1          0          0      )
                  (     0          1          0      )
                  (     0          0         -1      )

 cart.    s( 3) = ( -1.0000000  0.0000000  0.0000000 )
                  (  0.0000000  1.0000000  0.0000000 )
                  (  0.0000000  0.0000000 -1.0000000 )


      isym =  4     180 deg rotation - cart. axis [1,0,0]        

 cryst.   s( 4) = (     1          0          0      )
                  (     0         -1          0      )
                  (     0          0         -1      )

 cart.    s( 4) = (  1.0000000  0.0000000  0.0000000 )
                  (  0.0000000 -1.0000000  0.0000000 )
                  (  0.0000000  0.0000000 -1.0000000 )


      isym =  5     180 deg rotation - cart. axis [1,1,0]        

 cryst.   s( 5) = (     0          1          0      )
                  (     1          0          0      )
                  (     0          0         -1      )

 cart.    s( 5) = (  0.0000000  1.0000000  0.0000000 )
                  (  1.0000000  0.0000000  0.0000000 )
                  (  0.0000000  0.0000000 -1.0000000 )


      isym =  6     180 deg rotation - cart. axis [1,-1,0]       

 cryst.   s( 6) = (     0         -1          0      )
                  (    -1          0          0      )
                  (     0          0         -1      )

 cart.    s( 6) = (  0.0000000 -1.0000000  0.0000000 )
                  ( -1.0000000  0.0000000  0.0000000 )
                  (  0.0000000  0.0000000 -1.0000000 )


      isym =  7      90 deg rotation - cart. axis [0,0,-1]       

 cryst.   s( 7) = (     0         -1          0      )
                  (     1          0          0      )
                  (     0          0          1      )

 cart.    s( 7) = (  0.0000000  1.0000000  0.0000000 )
                  ( -1.0000000  0.0000000  0.0000000 )
                  (  0.0000000  0.0000000  1.0000000 )


      isym =  8      90 deg rotation - cart. axis [0,0,1]        

 cryst.   s( 8) = (     0          1          0      )
                  (    -1          0          0      )
                  (     0          0          1      )

 cart.    s( 8) = (  0.0000000 -1.0000000  0.0000000 )
                  (  1.0000000  0.0000000  0.0000000 )
                  (  0.0000000  0.0000000  1.0000000 )


      isym =  9     180 deg rotation - cart. axis [1,0,1]        

 cryst.   s( 9) = (     0          0          1      )
                  (     0         -1          0      )
                  (     1          0          0      )

 cart.    s( 9) = (  0.0000000  0.0000000  1.0000000 )
                  (  0.0000000 -1.0000000  0.0000000 )
                  (  1.0000000  0.0000000  0.0000000 )


      isym = 10     180 deg rotation - cart. axis [-1,0,1]       

 cryst.   s(10) = (     0          0         -1      )
                  (     0         -1          0      )
                  (    -1          0          0      )

 cart.    s(10) = (  0.0000000  0.0000000 -1.0000000 )
                  (  0.0000000 -1.0000000  0.0000000 )
                  ( -1.0000000  0.0000000  0.0000000 )


      isym = 11      90 deg rotation - cart. axis [0,1,0]        

 cryst.   s(11) = (     0          0         -1      )
                  (     0          1          0      )
                  (     1          0          0      )

 cart.    s(11) = (  0.0000000  0.0000000  1.0000000 )
                  (  0.0000000  1.0000000  0.0000000 )
                  ( -1.0000000  0.0000000  0.0000000 )


      isym = 12      90 deg rotation - cart. axis [0,-1,0]       

 cryst.   s(12) = (     0          0          1      )
                  (     0          1          0      )
                  (    -1          0          0      )

 cart.    s(12) = (  0.0000000  0.0000000 -1.0000000 )
                  (  0.0000000  1.0000000  0.0000000 )
                  (  1.0000000  0.0000000  0.0000000 )


      isym = 13     180 deg rotation - cart. axis [0,1,1]        

 cryst.   s(13) = (    -1          0          0      )
                  (     0          0          1      )
                  (     0          1          0      )

 cart.    s(13) = ( -1.0000000  0.0000000  0.0000000 )
                  (  0.0000000  0.0000000  1.0000000 )
                  (  0.0000000  1.0000000  0.0000000 )


      isym = 14     180 deg rotation - cart. axis [0,1,-1]       

 cryst.   s(14) = (    -1          0          0      )
                  (     0          0         -1      )
                  (     0         -1          0      )

 cart.    s(14) = ( -1.0000000  0.0000000  0.0000000 )
                  (  0.0000000  0.0000000 -1.0000000 )
                  (  0.0000000 -1.0000000  0.0000000 )


      isym = 15      90 deg rotation - cart. axis [-1,0,0]       

 cryst.   s(15) = (     1          0          0      )
                  (     0          0         -1      )
                  (     0          1          0      )

 cart.    s(15) = (  1.0000000  0.0000000  0.0000000 )
                  (  0.0000000  0.0000000  1.0000000 )
                  (  0.0000000 -1.0000000  0.0000000 )


      isym = 16      90 deg rotation - cart. axis [1,0,0]        

 cryst.   s(16) = (     1          0          0      )
                  (     0          0          1      )
                  (     0         -1          0      )

 cart.    s(16) = (  1.0000000  0.0000000  0.0000000 )
                  (  0.0000000  0.0000000 -1.0000000 )
                  (  0.0000000  1.0000000  0.0000000 )


      isym = 17     120 deg rotation - cart. axis [-1,-1,-1]     

 cryst.   s(17) = (     0          0          1      )
                  (     1          0          0      )
                  (     0          1          0      )

 cart.    s(17) = (  0.0000000  1.0000000  0.0000000 )
                  (  0.0000000  0.0000000  1.0000000 )
                  (  1.0000000  0.0000000  0.0000000 )


      isym = 18     120 deg rotation - cart. axis [-1,1,1]       

 cryst.   s(18) = (     0          0         -1      )
                  (    -1          0          0      )
                  (     0          1          0      )

 cart.    s(18) = (  0.0000000 -1.0000000  0.0000000 )
                  (  0.0000000  0.0000000  1.0000000 )
                  ( -1.0000000  0.0000000  0.0000000 )


      isym = 19     120 deg rotation - cart. axis [1,1,-1]       

 cryst.   s(19) = (     0          0         -1      )
                  (     1          0          0      )
                  (     0         -1          0      )

 cart.    s(19) = (  0.0000000  1.0000000  0.0000000 )
                  (  0.0000000  0.0000000 -1.0000000 )
                  ( -1.0000000  0.0000000  0.0000000 )


      isym = 20     120 deg rotation - cart. axis [1,-1,1]       

 cryst.   s(20) = (     0          0          1      )
                  (    -1          0          0      )
                  (     0         -1          0      )

 cart.    s(20) = (  0.0000000 -1.0000000  0.0000000 )
                  (  0.0000000  0.0000000 -1.0000000 )
                  (  1.0000000  0.0000000  0.0000000 )


      isym = 21     120 deg rotation - cart. axis [1,1,1]        

 cryst.   s(21) = (     0          1          0      )
                  (     0          0          1      )
                  (     1          0          0      )

 cart.    s(21) = (  0.0000000  0.0000000  1.0000000 )
                  (  1.0000000  0.0000000  0.0000000 )
                  (  0.0000000  1.0000000  0.0000000 )


      isym = 22     120 deg rotation - cart. axis [-1,1,-1]      

 cryst.   s(22) = (     0         -1          0      )
                  (     0          0         -1      )
                  (     1          0          0      )

 cart.    s(22) = (  0.0000000  0.0000000  1.0000000 )
                  ( -1.0000000  0.0000000  0.0000000 )
                  (  0.0000000 -1.0000000  0.0000000 )


      isym = 23     120 deg rotation - cart. axis [1,-1,-1]      

 cryst.   s(23) = (     0         -1          0      )
                  (     0          0          1      )
                  (    -1          0          0      )

 cart.    s(23) = (  0.0000000  0.0000000 -1.0000000 )
                  ( -1.0000000  0.0000000  0.0000000 )
                  (  0.0000000  1.0000000  0.0000000 )


      isym = 24     120 deg rotation - cart. axis [-1,-1,1]      

 cryst.   s(24) = (     0          1          0      )
                  (     0          0         -1      )
                  (    -1          0          0      )

 cart.    s(24) = (  0.0000000  0.0000000 -1.0000000 )
                  (  1.0000000  0.0000000  0.0000000 )
                  (  0.0000000 -1.0000000  0.0000000 )


      isym = 25     inversion                                    

 cryst.   s(25) = (    -1          0          0      )
                  (     0         -1          0      )
                  (     0          0         -1      )

 cart.    s(25) = ( -1.0000000  0.0000000  0.0000000 )
                  (  0.0000000 -1.0000000  0.0000000 )
                  (  0.0000000  0.0000000 -1.0000000 )


      isym = 26     inv. 180 deg rotation - cart. axis [0,0,1]   

 cryst.   s(26) = (     1          0          0      )
                  (     0          1          0      )
                  (     0          0         -1      )

 cart.    s(26) = (  1.0000000  0.0000000  0.0000000 )
                  (  0.0000000  1.0000000  0.0000000 )
                  (  0.0000000  0.0000000 -1.0000000 )


      isym = 27     inv. 180 deg rotation - cart. axis [0,1,0]   

 cryst.   s(27) = (     1          0          0      )
                  (     0         -1          0      )
                  (     0          0          1      )

 cart.    s(27) = (  1.0000000  0.0000000  0.0000000 )
                  (  0.0000000 -1.0000000  0.0000000 )
                  (  0.0000000  0.0000000  1.0000000 )


      isym = 28     inv. 180 deg rotation - cart. axis [1,0,0]   

 cryst.   s(28) = (    -1          0          0      )
                  (     0          1          0      )
                  (     0          0          1      )

 cart.    s(28) = ( -1.0000000  0.0000000  0.0000000 )
                  (  0.0000000  1.0000000  0.0000000 )
                  (  0.0000000  0.0000000  1.0000000 )


      isym = 29     inv. 180 deg rotation - cart. axis [1,1,0]   

 cryst.   s(29) = (     0         -1          0      )
                  (    -1          0          0      )
                  (     0          0          1      )

 cart.    s(29) = (  0.0000000 -1.0000000  0.0000000 )
                  ( -1.0000000  0.0000000  0.0000000 )
                  (  0.0000000  0.0000000  1.0000000 )


      isym = 30     inv. 180 deg rotation - cart. axis [1,-1,0]  

 cryst.   s(30) = (     0          1          0      )
                  (     1          0          0      )
                  (     0          0          1      )

 cart.    s(30) = (  0.0000000  1.0000000  0.0000000 )
                  (  1.0000000  0.0000000  0.0000000 )
                  (  0.0000000  0.0000000  1.0000000 )


      isym = 31     inv.  90 deg rotation - cart. axis [0,0,-1]  

 cryst.   s(31) = (     0          1          0      )
                  (    -1          0          0      )
                  (     0          0         -1      )

 cart.    s(31) = (  0.0000000 -1.0000000  0.0000000 )
                  (  1.0000000  0.0000000  0.0000000 )
                  (  0.0000000  0.0000000 -1.0000000 )


      isym = 32     inv.  90 deg rotation - cart. axis [0,0,1]   

 cryst.   s(32) = (     0         -1          0      )
                  (     1          0          0      )
                  (     0          0         -1      )

 cart.    s(32) = (  0.0000000  1.0000000  0.0000000 )
                  ( -1.0000000  0.0000000  0.0000000 )
                  (  0.0000000  0.0000000 -1.0000000 )


      isym = 33     inv. 180 deg rotation - cart. axis [1,0,1]   

 cryst.   s(33) = (     0          0         -1      )
                  (     0          1          0      )
                  (    -1          0          0      )

 cart.    s(33) = (  0.0000000  0.0000000 -1.0000000 )
                  (  0.0000000  1.0000000  0.0000000 )
                  ( -1.0000000  0.0000000  0.0000000 )


      isym = 34     inv. 180 deg rotation - cart. axis [-1,0,1]  

 cryst.   s(34) = (     0          0          1      )
                  (     0          1          0      )
                  (     1          0          0      )

 cart.    s(34) = (  0.0000000  0.0000000  1.0000000 )
                  (  0.0000000  1.0000000  0.0000000 )
                  (  1.0000000  0.0000000  0.0000000 )


      isym = 35     inv.  90 deg rotation - cart. axis [0,1,0]   

 cryst.   s(35) = (     0          0          1      )
                  (     0         -1          0      )
                  (    -1          0          0      )

 cart.    s(35) = (  0.0000000  0.0000000 -1.0000000 )
                  (  0.0000000 -1.0000000  0.0000000 )
                  (  1.0000000  0.0000000  0.0000000 )


      isym = 36     inv.  90 deg rotation - cart. axis [0,-1,0]  

 cryst.   s(36) = (     0          0         -1      )
                  (     0         -1          0      )
                  (     1          0          0      )

 cart.    s(36) = (  0.0000000  0.0000000  1.0000000 )
                  (  0.0000000 -1.0000000  0.0000000 )
                  ( -1.0000000  0.0000000  0.0000000 )


      isym = 37     inv. 180 deg rotation - cart. axis [0,1,1]   

 cryst.   s(37) = (     1          0          0      )
                  (     0          0         -1      )
                  (     0         -1          0      )

 cart.    s(37) = (  1.0000000  0.0000000  0.0000000 )
                  (  0.0000000  0.0000000 -1.0000000 )
                  (  0.0000000 -1.0000000  0.0000000 )


      isym = 38     inv. 180 deg rotation - cart. axis [0,1,-1]  

 cryst.   s(38) = (     1          0          0      )
                  (     0          0          1      )
                  (     0          1          0      )

 cart.    s(38) = (  1.0000000  0.0000000  0.0000000 )
                  (  0.0000000  0.0000000  1.0000000 )
                  (  0.0000000  1.0000000  0.0000000 )


      isym = 39     inv.  90 deg rotation - cart. axis [-1,0,0]  

 cryst.   s(39) = (    -1          0          0      )
                  (     0          0          1      )
                  (     0         -1          0      )

 cart.    s(39) = ( -1.0000000  0.0000000  0.0000000 )
                  (  0.0000000  0.0000000 -1.0000000 )
                  (  0.0000000  1.0000000  0.0000000 )


      isym = 40     inv.  90 deg rotation - cart. axis [1,0,0]   

 cryst.   s(40) = (    -1          0          0      )
                  (     0          0         -1      )
                  (     0          1          0      )

 cart.    s(40) = ( -1.0000000  0.0000000  0.0000000 )
                  (  0.0000000  0.0000000  1.0000000 )
                  (  0.0000000 -1.0000000  0.0000000 )


      isym = 41     inv. 120 deg rotation - cart. axis [-1,-1,-1]

 cryst.   s(41) = (     0          0         -1      )
                  (    -1          0          0      )
                  (     0         -1          0      )

 cart.    s(41) = (  0.0000000 -1.0000000  0.0000000 )
                  (  0.0000000  0.0000000 -1.0000000 )
                  ( -1.0000000  0.0000000  0.0000000 )


      isym = 42     inv. 120 deg rotation - cart. axis [-1,1,1]  

 cryst.   s(42) = (     0          0          1      )
                  (     1          0          0      )
                  (     0         -1          0      )

 cart.    s(42) = (  0.0000000  1.0000000  0.0000000 )
                  (  0.0000000  0.0000000 -1.0000000 )
                  (  1.0000000  0.0000000  0.0000000 )


      isym = 43     inv. 120 deg rotation - cart. axis [1,1,-1]  

 cryst.   s(43) = (     0          0          1      )
                  (    -1          0          0      )
                  (     0          1          0      )

 cart.    s(43) = (  0.0000000 -1.0000000  0.0000000 )
                  (  0.0000000  0.0000000  1.0000000 )
                  (  1.0000000  0.0000000  0.0000000 )


      isym = 44     inv. 120 deg rotation - cart. axis [1,-1,1]  

 cryst.   s(44) = (     0          0         -1      )
                  (     1          0          0      )
                  (     0          1          0      )

 cart.    s(44) = (  0.0000000  1.0000000  0.0000000 )
                  (  0.0000000  0.0000000  1.0000000 )
                  ( -1.0000000  0.0000000  0.0000000 )


      isym = 45     inv. 120 deg rotation - cart. axis [1,1,1]   

 cryst.   s(45) = (     0         -1          0      )
                  (     0          0         -1      )
                  (    -1          0          0      )

 cart.    s(45) = (  0.0000000  0.0000000 -1.0000000 )
                  ( -1.0000000  0.0000000  0.0000000 )
                  (  0.0000000 -1.0000000  0.0000000 )


      isym = 46     inv. 120 deg rotation - cart. axis [-1,1,-1] 

 cryst.   s(46) = (     0          1          0      )
                  (     0          0          1      )
                  (    -1          0          0      )

 cart.    s(46) = (  0.0000000  0.0000000 -1.0000000 )
                  (  1.0000000  0.0000000  0.0000000 )
                  (  0.0000000  1.0000000  0.0000000 )


      isym = 47     inv. 120 deg rotation - cart. axis [1,-1,-1] 

 cryst.   s(47) = (     0          1          0      )
                  (     0          0         -1      )
                  (     1          0          0      )

 cart.    s(47) = (  0.0000000  0.0000000  1.0000000 )
                  (  1.0000000  0.0000000  0.0000000 )
                  (  0.0000000 -1.0000000  0.0000000 )


      isym = 48     inv. 120 deg rotation - cart. axis [-1,-1,1] 

 cryst.   s(48) = (     0         -1          0      )
                  (     0          0          1      )
                  (     1          0          0      )

 cart.    s(48) = (  0.0000000  0.0000000  1.0000000 )
                  ( -1.0000000  0.0000000  0.0000000 )
                  (  0.0000000  1.0000000  0.0000000 )


   Cartesian axes

     site n.     atom                  positions (alat units)
         1           Cs  tau(   1) = (   0.2500001   0.2500001   0.2500001  )
         2           Cs  tau(   2) = (   0.2500001   0.2500001   0.7499999  )
         3           Cs  tau(   3) = (   0.2500001   0.7499999   0.2500001  )
         4           Cs  tau(   4) = (   0.2500001   0.7499999   0.7499999  )
         5           Cs  tau(   5) = (   0.7499999   0.2500001   0.2500001  )
         6           Cs  tau(   6) = (   0.7499999   0.2500001   0.7499999  )
         7           Cs  tau(   7) = (   0.7499999   0.7499999   0.2500001  )
         8           Cs  tau(   8) = (   0.7499999   0.7499999   0.7499999  )
         9           Pb  tau(   9) = (   0.0000000   0.0000000   0.0000000  )
        10           Pb  tau(  10) = (   0.0000000   0.0000000   0.5000000  )
        11           Pb  tau(  11) = (   0.0000000   0.5000000   0.0000000  )
        12           Pb  tau(  12) = (   0.0000000   0.5000000   0.5000000  )
        13           Pb  tau(  13) = (   0.5000000   0.0000000   0.0000000  )
        14           Pb  tau(  14) = (   0.5000000   0.0000000   0.5000000  )
        15           Pb  tau(  15) = (   0.5000000   0.5000000   0.0000000  )
        16           Pb  tau(  16) = (   0.5000000   0.5000000   0.5000000  )
        17           I   tau(  17) = (   0.0000000   0.0000000   0.2500016  )
        18           I   tau(  18) = (   0.0000000   0.0000000   0.7499984  )
        19           I   tau(  19) = (   0.0000000   0.5000000   0.2500017  )
        20           I   tau(  20) = (   0.0000000   0.5000000   0.7499983  )
        21           I   tau(  21) = (   0.5000000   0.0000000   0.2500017  )
        22           I   tau(  22) = (   0.5000000   0.0000000   0.7499983  )
        23           I   tau(  23) = (   0.5000000   0.5000000   0.2500017  )
        24           I   tau(  24) = (   0.5000000   0.5000000   0.7499983  )
        25           I   tau(  25) = (   0.0000000   0.2500016   0.0000000  )
        26           I   tau(  26) = (   0.0000000   0.2500017   0.5000000  )
        27           I   tau(  27) = (   0.0000000   0.7499984   0.0000000  )
        28           I   tau(  28) = (   0.0000000   0.7499983   0.5000000  )
        29           I   tau(  29) = (   0.5000000   0.2500017   0.0000000  )
        30           I   tau(  30) = (   0.5000000   0.2500017   0.5000000  )
        31           I   tau(  31) = (   0.5000000   0.7499983   0.0000000  )
        32           I   tau(  32) = (   0.5000000   0.7499983   0.5000000  )
        33           I   tau(  33) = (   0.2500016   0.0000000   0.0000000  )
        34           I   tau(  34) = (   0.2500017   0.0000000   0.5000000  )
        35           I   tau(  35) = (   0.2500017   0.5000000   0.0000000  )
        36           I   tau(  36) = (   0.2500017   0.5000000   0.5000000  )
        37           I   tau(  37) = (   0.7499984   0.0000000   0.0000000  )
        38           I   tau(  38) = (   0.7499983   0.0000000   0.5000000  )
        39           I   tau(  39) = (   0.7499983   0.5000000   0.0000000  )
        40           I   tau(  40) = (   0.7499983   0.5000000   0.5000000  )

   Crystallographic axes

     site n.     atom                  positions (cryst. coord.)
         1           Cs  tau(   1) = (  0.2500001  0.2500001  0.2500001  )
         2           Cs  tau(   2) = (  0.2500001  0.2500001  0.7499999  )
         3           Cs  tau(   3) = (  0.2500001  0.7499999  0.2500001  )
         4           Cs  tau(   4) = (  0.2500001  0.7499999  0.7499999  )
         5           Cs  tau(   5) = (  0.7499999  0.2500001  0.2500001  )
         6           Cs  tau(   6) = (  0.7499999  0.2500001  0.7499999  )
         7           Cs  tau(   7) = (  0.7499999  0.7499999  0.2500001  )
         8           Cs  tau(   8) = (  0.7499999  0.7499999  0.7499999  )
         9           Pb  tau(   9) = (  0.0000000  0.0000000  0.0000000  )
        10           Pb  tau(  10) = (  0.0000000  0.0000000  0.5000000  )
        11           Pb  tau(  11) = (  0.0000000  0.5000000  0.0000000  )
        12           Pb  tau(  12) = (  0.0000000  0.5000000  0.5000000  )
        13           Pb  tau(  13) = (  0.5000000  0.0000000  0.0000000  )
        14           Pb  tau(  14) = (  0.5000000  0.0000000  0.5000000  )
        15           Pb  tau(  15) = (  0.5000000  0.5000000  0.0000000  )
        16           Pb  tau(  16) = (  0.5000000  0.5000000  0.5000000  )
        17           I   tau(  17) = (  0.0000000  0.0000000  0.2500016  )
        18           I   tau(  18) = (  0.0000000  0.0000000  0.7499984  )
        19           I   tau(  19) = (  0.0000000  0.5000000  0.2500017  )
        20           I   tau(  20) = (  0.0000000  0.5000000  0.7499983  )
        21           I   tau(  21) = (  0.5000000  0.0000000  0.2500017  )
        22           I   tau(  22) = (  0.5000000  0.0000000  0.7499983  )
        23           I   tau(  23) = (  0.5000000  0.5000000  0.2500017  )
        24           I   tau(  24) = (  0.5000000  0.5000000  0.7499983  )
        25           I   tau(  25) = (  0.0000000  0.2500016  0.0000000  )
        26           I   tau(  26) = (  0.0000000  0.2500017  0.5000000  )
        27           I   tau(  27) = (  0.0000000  0.7499984  0.0000000  )
        28           I   tau(  28) = (  0.0000000  0.7499983  0.5000000  )
        29           I   tau(  29) = (  0.5000000  0.2500017  0.0000000  )
        30           I   tau(  30) = (  0.5000000  0.2500017  0.5000000  )
        31           I   tau(  31) = (  0.5000000  0.7499983  0.0000000  )
        32           I   tau(  32) = (  0.5000000  0.7499983  0.5000000  )
        33           I   tau(  33) = (  0.2500016  0.0000000  0.0000000  )
        34           I   tau(  34) = (  0.2500017  0.0000000  0.5000000  )
        35           I   tau(  35) = (  0.2500017  0.5000000  0.0000000  )
        36           I   tau(  36) = (  0.2500017  0.5000000  0.5000000  )
        37           I   tau(  37) = (  0.7499984  0.0000000  0.0000000  )
        38           I   tau(  38) = (  0.7499983  0.0000000  0.5000000  )
        39           I   tau(  39) = (  0.7499983  0.5000000  0.0000000  )
        40           I   tau(  40) = (  0.7499983  0.5000000  0.5000000  )

     number of k points=    10  Marzari-Vanderbilt smearing, width (Ry)=  0.0147
                       cart. coord. in units 2pi/alat
        k(    1) = (   0.0000000   0.0000000   0.0000000), wk =   0.0312500
        k(    2) = (   0.0000000   0.0000000   0.2500000), wk =   0.1875000
        k(    3) = (   0.0000000   0.0000000  -0.5000000), wk =   0.0937500
        k(    4) = (   0.0000000   0.2500000   0.2500000), wk =   0.3750000
        k(    5) = (   0.0000000   0.2500000  -0.5000000), wk =   0.3750000
        k(    6) = (   0.0000000  -0.5000000  -0.5000000), wk =   0.0937500
        k(    7) = (   0.2500000   0.2500000   0.2500000), wk =   0.2500000
        k(    8) = (   0.2500000   0.2500000  -0.5000000), wk =   0.3750000
        k(    9) = (   0.2500000  -0.5000000  -0.5000000), wk =   0.1875000
        k(   10) = (  -0.5000000  -0.5000000  -0.5000000), wk =   0.0312500

                       cryst. coord.
        k(    1) = (   0.0000000   0.0000000   0.0000000), wk =   0.0312500
        k(    2) = (   0.0000000   0.0000000   0.2500000), wk =   0.1875000
        k(    3) = (   0.0000000   0.0000000  -0.5000000), wk =   0.0937500
        k(    4) = (   0.0000000   0.2500000   0.2500000), wk =   0.3750000
        k(    5) = (   0.0000000   0.2500000  -0.5000000), wk =   0.3750000
        k(    6) = (   0.0000000  -0.5000000  -0.5000000), wk =   0.0937500
        k(    7) = (   0.2500000   0.2500000   0.2500000), wk =   0.2500000
        k(    8) = (   0.2500000   0.2500000  -0.5000000), wk =   0.3750000
        k(    9) = (   0.2500000  -0.5000000  -0.5000000), wk =   0.1875000
        k(   10) = (  -0.5000000  -0.5000000  -0.5000000), wk =   0.0312500

     Dense  grid:   479769 G-vectors     FFT dimensions: ( 100, 100, 100)

     Dynamical RAM for                 wfc:      64.32 MB

     Dynamical RAM for     wfc (w. buffer):     707.57 MB

     Dynamical RAM for           str. fact:       7.32 MB

     Dynamical RAM for           local pot:       0.00 MB

     Dynamical RAM for          nlocal pot:     146.33 MB

     Dynamical RAM for                qrad:       3.05 MB

     Dynamical RAM for          rho,v,vnew:      15.10 MB

     Dynamical RAM for               rhoin:       5.03 MB

     Dynamical RAM for            rho*nmix:      39.04 MB

     Dynamical RAM for           G-vectors:      10.37 MB

     Dynamical RAM for          h,s,v(r/c):       8.15 MB

     Dynamical RAM for          <psi|beta>:       1.55 MB

     Dynamical RAM for                 psi:     128.65 MB

     Dynamical RAM for                hpsi:     128.65 MB

     Dynamical RAM for                spsi:     128.65 MB

     Dynamical RAM for      wfcinit/wfcrot:     167.54 MB

     Dynamical RAM for           addusdens:     512.45 MB

     Dynamical RAM for          addusforce:     626.01 MB

     Dynamical RAM for         addusstress:     490.49 MB

     Estimated static dynamical RAM per process >     956.55 MB

     Estimated max dynamical RAM per process >       1.55 GB

     Estimated total dynamical RAM >       4.64 GB

     Check: negative core charge=   -0.000001

     Initial potential from superposition of free atoms

     starting charge  351.66429, renormalised to  352.00000
     Starting wfcs are  272 randomized atomic wfcs
     Checking if some PAW data can be deallocated... 
       PAW data deallocated on    1 nodes for type:  2
       PAW data deallocated on    1 nodes for type:  3

     total cpu time spent up to now is      529.0 secs

     Self-consistent Calculation

     iteration #  1     ecut=    40.00 Ry     beta= 0.40
     Davidson diagonalization with overlap
     ethr =  1.00E-02,  avg # of iterations =  2.7

     Threshold (ethr) on eigenvalues was too large:
     Diagonalizing with lowered threshold

     Davidson diagonalization with overlap
     ethr =  2.56E-04,  avg # of iterations =  7.3

     total cpu time spent up to now is     3225.5 secs

     total energy              =  -16565.69731459 Ry
     estimated scf accuracy    <       0.82029684 Ry

     iteration #  2     ecut=    40.00 Ry     beta= 0.40
     Davidson diagonalization with overlap
     ethr =  2.33E-04,  avg # of iterations =  2.0

     total cpu time spent up to now is     4613.0 secs

     total energy              =  -16565.82534548 Ry
     estimated scf accuracy    <       0.05266925 Ry

     iteration #  3     ecut=    40.00 Ry     beta= 0.40
     Davidson diagonalization with overlap
     c_bands:  3 eigenvalues not converged
     c_bands:  4 eigenvalues not converged
     c_bands:  1 eigenvalues not converged
     ethr =  1.50E-05,  avg # of iterations = 13.4

     total cpu time spent up to now is     6788.7 secs

     total energy              =  -16565.85386920 Ry
     estimated scf accuracy    <       0.01567303 Ry

     iteration #  4     ecut=    40.00 Ry     beta= 0.40
     Davidson diagonalization with overlap
     c_bands:  2 eigenvalues not converged
     c_bands:  1 eigenvalues not converged
     ethr =  4.45E-06,  avg # of iterations =  9.4

     total cpu time spent up to now is     8205.6 secs

     total energy              =  -16565.85562314 Ry
     estimated scf accuracy    <       0.00088394 Ry

     iteration #  5     ecut=    40.00 Ry     beta= 0.40
     Davidson diagonalization with overlap
     c_bands:  1 eigenvalues not converged
     ethr =  2.51E-07,  avg # of iterations =  8.0

     total cpu time spent up to now is    10322.5 secs

     total energy              =  -16565.85614632 Ry
     estimated scf accuracy    <       0.00028405 Ry

     iteration #  6     ecut=    40.00 Ry     beta= 0.40
     Davidson diagonalization with overlap
     ethr =  8.07E-08,  avg # of iterations =  2.2

     total cpu time spent up to now is    11489.8 secs

     total energy              =  -16565.85613698 Ry
     estimated scf accuracy    <       0.00014127 Ry

     iteration #  7     ecut=    40.00 Ry     beta= 0.40
     Davidson diagonalization with overlap
     ethr =  4.01E-08,  avg # of iterations =  4.4

     total cpu time spent up to now is    13005.3 secs

     total energy              =  -16565.85616990 Ry
     estimated scf accuracy    <       0.00004514 Ry

     iteration #  8     ecut=    40.00 Ry     beta= 0.40
     Davidson diagonalization with overlap
     ethr =  1.28E-08,  avg # of iterations =  2.4

     total cpu time spent up to now is    14186.2 secs

     total energy              =  -16565.85616907 Ry
     estimated scf accuracy    <       0.00001923 Ry

     iteration #  9     ecut=    40.00 Ry     beta= 0.40
     Davidson diagonalization with overlap
     ethr =  5.46E-09,  avg # of iterations =  4.6

     total cpu time spent up to now is    15642.0 secs

     total energy              =  -16565.85617304 Ry
     estimated scf accuracy    <       0.00000116 Ry

     iteration # 10     ecut=    40.00 Ry     beta= 0.40
     Davidson diagonalization with overlap
     ethr =  3.30E-10,  avg # of iterations =  6.4

     total cpu time spent up to now is    17583.7 secs

     total energy              =  -16565.85617362 Ry
     estimated scf accuracy    <       0.00000077 Ry

     iteration # 11     ecut=    40.00 Ry     beta= 0.40
     Davidson diagonalization with overlap
     ethr =  2.18E-10,  avg # of iterations =  4.1

     total cpu time spent up to now is    18917.2 secs

     total energy              =  -16565.85617376 Ry
     estimated scf accuracy    <       0.00000012 Ry

     iteration # 12     ecut=    40.00 Ry     beta= 0.40
     Davidson diagonalization with overlap
     ethr =  3.27E-11,  avg # of iterations =  5.1

     total cpu time spent up to now is    20637.6 secs

     total energy              =  -16565.85617381 Ry
     estimated scf accuracy    <       0.00000011 Ry

     iteration # 13     ecut=    40.00 Ry     beta= 0.40
     Davidson diagonalization with overlap
     ethr =  3.00E-11,  avg # of iterations =  2.0

     total cpu time spent up to now is    21825.2 secs

     total energy              =  -16565.85617381 Ry
     estimated scf accuracy    <       0.00000003 Ry

     iteration # 14     ecut=    40.00 Ry     beta= 0.40
     Davidson diagonalization with overlap
     ethr =  7.63E-12,  avg # of iterations =  3.9

     total cpu time spent up to now is    23167.3 secs

     End of self-consistent calculation

          k = 0.0000 0.0000 0.0000 ( 60005 PWs)   bands (ev):

   -18.6024 -18.6022 -18.6022 -18.6022 -18.6019 -18.6019 -18.6019 -18.6018
   -14.0207 -14.0207 -14.0207 -14.0207 -14.0207 -14.0154 -14.0154 -14.0154
   -14.0100 -14.0100 -14.0100 -14.0046 -14.0046 -14.0044 -14.0044 -14.0044
   -13.9696 -13.9696 -13.9696 -13.9695 -13.9695 -13.9695 -13.9694 -13.9694
   -13.9694 -13.9693 -13.9693 -13.9693 -13.9692 -13.9692 -13.9692 -13.9692
   -13.9692 -13.9692 -13.9690 -13.9690 -13.9690 -13.9690 -13.9690 -13.9690
    -9.3538  -9.1555  -9.1555  -9.1555  -8.9113  -8.9113  -8.9113  -8.8447
    -8.8447  -8.8447  -8.8447  -8.8447  -8.8447  -8.8442  -8.8442  -8.8442
    -8.8391  -8.8391  -8.8391  -8.6176  -8.6176  -8.6155  -8.6155  -8.6155
    -5.7346  -5.3909  -5.3909  -5.3909  -5.3778  -5.3778  -5.3778  -5.3777
    -5.3777  -5.3777  -5.3777  -5.3777  -5.3777  -5.3739  -5.3739  -5.3739
    -5.3739  -5.3739  -5.3739  -5.3706  -5.3706  -5.3706  -5.3702  -5.3702
    -5.3702  -5.2028  -5.2028  -5.2027  -4.6962  -4.6962  -4.6962  -4.1857
    -0.6550  -0.6550  -0.6550  -0.5543  -0.5543  -0.5543  -0.5543  -0.5543
    -0.5543  -0.4221  -0.4221  -0.4221   0.6156   0.6156   0.6156   0.7473
     0.7473   0.7473   0.8951   0.8951   0.8951   1.2152   1.2152   1.2152
     1.2152   1.2152   1.2152   1.3155   1.3155   1.3155   1.3155   1.3155
     1.3155   1.3639   1.3639   1.3639   1.3639   1.3639   1.3639   1.4022
     1.4022   1.4022   1.4097   1.4097   1.4296   1.4296   1.4296   1.5586
     1.5586   1.5586   1.5801   1.5801   1.5801   1.5801   1.5801   1.5801
     1.6658   1.6658   1.6658   1.8636   1.8636   1.8636   2.0594   2.0594
     2.0594   2.0716   2.0716   2.0716   2.2970   2.2970   2.2970   2.7314
     4.1450   4.1450   4.1450   4.5731   4.5731   4.5731   4.5731   4.5731
     4.5731   4.9039   4.9039   4.9039   5.9135   6.7651   6.9907   6.9907
     7.3374   7.3374   7.3374   7.3852   7.3852   7.3853   7.5072   7.5072
     7.5072   7.6155   7.6155   7.6156   7.7773   7.7773   7.7773   7.8640
     7.8640   7.8640   7.8640

     occupation numbers 
     1.0000   1.0000   1.0000   1.0000   1.0000   1.0000   1.0000   1.0000
     1.0000   1.0000   1.0000   1.0000   1.0000   1.0000   1.0000   1.0000
     1.0000   1.0000   1.0000   1.0000   1.0000   1.0000   1.0000   1.0000
     1.0000   1.0000   1.0000   1.0000   1.0000   1.0000   1.0000   1.0000
     1.0000   1.0000   1.0000   1.0000   1.0000   1.0000   1.0000   1.0000
     1.0000   1.0000   1.0000   1.0000   1.0000   1.0000   1.0000   1.0000
     1.0000   1.0000   1.0000   1.0000   1.0000   1.0000   1.0000   1.0000
     1.0000   1.0000   1.0000   1.0000   1.0000   1.0000   1.0000   1.0000
     1.0000   1.0000   1.0000   1.0000   1.0000   1.0000   1.0000   1.0000
     1.0000   1.0000   1.0000   1.0000   1.0000   1.0000   1.0000   1.0000
     1.0000   1.0000   1.0000   1.0000   1.0000   1.0000   1.0000   1.0000
     1.0000   1.0000   1.0000   1.0000   1.0000   1.0000   1.0000   1.0000
     1.0000   1.0000   1.0000   1.0000   1.0000   1.0000   1.0000   1.0000
     1.0000   1.0000   1.0000   1.0000   1.0000   1.0000   1.0000   1.0000
     1.0000   1.0000   1.0000   1.0000   1.0000   1.0000   1.0000   1.0000
     1.0000   1.0000   1.0000   1.0000   1.0000   1.0000   1.0000   1.0000
     1.0000   1.0000   1.0000   1.0000   1.0000   1.0000   1.0000   1.0000
     1.0000   1.0000   1.0000   1.0000   1.0000   1.0000   1.0000   1.0000
     1.0000   1.0000   1.0000   1.0000   1.0000   1.0000   1.0000   1.0002
     1.0002   1.0002   1.0003   1.0003   1.0003   1.0003   1.0003   1.0003
     1.0024   1.0024   1.0024   1.0504   1.0504   1.0504   0.9997   0.9997
     0.9997   0.9751   0.9751   0.9751   0.2382   0.2382   0.2382   0.0000
     0.0000   0.0000   0.0000   0.0000   0.0000   0.0000   0.0000   0.0000
     0.0000   0.0000   0.0000   0.0000   0.0000   0.0000   0.0000   0.0000
     0.0000   0.0000   0.0000   0.0000   0.0000   0.0000   0.0000   0.0000
     0.0000   0.0000   0.0000   0.0000   0.0000   0.0000   0.0000   0.0000
     0.0000   0.0000   0.0000

          k = 0.0000 0.0000 0.2500 ( 59961 PWs)   bands (ev):

   -18.6023 -18.6022 -18.6021 -18.6021 -18.6020 -18.6020 -18.6019 -18.6018
   -14.0207 -14.0207 -14.0196 -14.0196 -14.0191 -14.0159 -14.0159 -14.0138
   -14.0116 -14.0095 -14.0095 -14.0061 -14.0056 -14.0056 -14.0045 -14.0045
   -13.9696 -13.9696 -13.9696 -13.9696 -13.9695 -13.9695 -13.9694 -13.9694
   -13.9693 -13.9693 -13.9693 -13.9693 -13.9693 -13.9693 -13.9692 -13.9692
   -13.9692 -13.9692 -13.9690 -13.9690 -13.9690 -13.9690 -13.9690 -13.9689
    -9.3334  -9.1996  -9.1349  -9.1349  -8.9889  -8.9889  -8.9014  -8.8504
    -8.8446  -8.8446  -8.8443  -8.8443  -8.8439  -8.8439  -8.8399  -8.8399
    -8.7957  -8.7692  -8.7692  -8.6420  -8.6337  -8.6337  -8.6173  -8.6158
    -5.6646  -5.3890  -5.3890  -5.3879  -5.3796  -5.3796  -5.3778  -5.3778
    -5.3773  -5.3773  -5.3772  -5.3772  -5.3763  -5.3745  -5.3745  -5.3745
    -5.3745  -5.3736  -5.3734  -5.3734  -5.3719  -5.3719  -5.3711  -5.3711
    -5.3708  -5.2905  -5.1380  -5.1380  -4.7831  -4.7831  -4.6355  -4.2784
    -0.6412  -0.6412  -0.5702  -0.5702  -0.5367  -0.5367  -0.4434  -0.4434
    -0.4242  -0.3284  -0.3284  -0.1958   0.6344   0.6513   0.6513   0.7035
     0.7274   0.7813   0.7813   0.8511   0.8511   0.8917   0.8917   1.0432
     1.0432   1.0836   1.2106   1.2106   1.2527   1.2527   1.3225   1.3225
     1.3555   1.3555   1.3567   1.3567   1.3967   1.3967   1.4033   1.4086
     1.4476   1.4739   1.4739   1.5232   1.5232   1.5371   1.5371   1.5388
     1.5423   1.5423   1.5664   1.5664   1.5884   1.5884   1.6108   1.6108
     1.6399   1.6462   1.6462   1.6972   1.8831   1.8831   1.9871   1.9871
     1.9949   1.9949   2.0612   2.0698   2.1172   2.1172   2.3107   2.5126
     4.2167   4.2167   4.5178   4.5178   4.6280   4.6280   4.7977   4.8625
     4.8625   5.1324   5.1324   5.4255   6.0580   6.8751   6.9812   6.9870
     7.0706   7.1089   7.3313   7.3313   7.4076   7.4076   7.4336   7.4868
     7.4868   7.5302   7.5302   7.5427   7.6154   7.6978   7.7208   7.7208
     7.7443   7.7443   7.8153

     occupation numbers 
     1.0000   1.0000   1.0000   1.0000   1.0000   1.0000   1.0000   1.0000
     1.0000   1.0000   1.0000   1.0000   1.0000   1.0000   1.0000   1.0000
     1.0000   1.0000   1.0000   1.0000   1.0000   1.0000   1.0000   1.0000
     1.0000   1.0000   1.0000   1.0000   1.0000   1.0000   1.0000   1.0000
     1.0000   1.0000   1.0000   1.0000   1.0000   1.0000   1.0000   1.0000
     1.0000   1.0000   1.0000   1.0000   1.0000   1.0000   1.0000   1.0000
     1.0000   1.0000   1.0000   1.0000   1.0000   1.0000   1.0000   1.0000
     1.0000   1.0000   1.0000   1.0000   1.0000   1.0000   1.0000   1.0000
     1.0000   1.0000   1.0000   1.0000   1.0000   1.0000   1.0000   1.0000
     1.0000   1.0000   1.0000   1.0000   1.0000   1.0000   1.0000   1.0000
     1.0000   1.0000   1.0000   1.0000   1.0000   1.0000   1.0000   1.0000
     1.0000   1.0000   1.0000   1.0000   1.0000   1.0000   1.0000   1.0000
     1.0000   1.0000   1.0000   1.0000   1.0000   1.0000   1.0000   1.0000
     1.0000   1.0000   1.0000   1.0000   1.0000   1.0000   1.0000   1.0000
     1.0000   1.0000   1.0000   1.0000   1.0000   1.0000   1.0000   1.0000
     1.0000   1.0000   1.0000   1.0000   1.0000   1.0000   1.0000   1.0000
     1.0000   1.0000   1.0000   1.0000   1.0000   1.0000   1.0000   1.0000
     1.0000   1.0000   1.0000   1.0000   1.0000   1.0000   1.0000   1.0000
     1.0000   1.0000   1.0000   1.0001   1.0001   1.0001   1.0001   1.0001
     1.0001   1.0001   1.0002   1.0002   1.0004   1.0004   1.0007   1.0007
     1.0014   1.0016   1.0016   1.0045   1.0596   1.0596   1.0785   1.0785
     1.0751   1.0751   0.9964   0.9790   0.8540   0.8540   0.2044   0.0078
     0.0000   0.0000   0.0000   0.0000   0.0000   0.0000   0.0000   0.0000
     0.0000   0.0000   0.0000   0.0000   0.0000   0.0000   0.0000   0.0000
     0.0000   0.0000   0.0000   0.0000   0.0000   0.0000   0.0000   0.0000
     0.0000   0.0000   0.0000   0.0000   0.0000   0.0000   0.0000   0.0000
     0.0000   0.0000   0.0000

          k = 0.0000 0.0000-0.5000 ( 60000 PWs)   bands (ev):

   -18.6023 -18.6023 -18.6021 -18.6021 -18.6021 -18.6021 -18.6018 -18.6018
   -14.0207 -14.0206 -14.0174 -14.0174 -14.0173 -14.0173 -14.0154 -14.0153
   -14.0100 -14.0099 -14.0080 -14.0080 -14.0080 -14.0080 -14.0045 -14.0045
   -13.9696 -13.9696 -13.9695 -13.9695 -13.9695 -13.9695 -13.9694 -13.9694
   -13.9694 -13.9694 -13.9693 -13.9693 -13.9693 -13.9693 -13.9692 -13.9692
   -13.9692 -13.9692 -13.9691 -13.9691 -13.9691 -13.9691 -13.9689 -13.9689
    -9.2761  -9.2761  -9.0762  -9.0762  -9.0762  -9.0762  -8.8766  -8.8766
    -8.8445  -8.8445  -8.8444  -8.8444  -8.8419  -8.8419  -8.8419  -8.8419
    -8.7090  -8.7090  -8.6870  -8.6870  -8.6869  -8.6869  -8.6165  -8.6165
    -5.4862  -5.4862  -5.3843  -5.3843  -5.3843  -5.3843  -5.3808  -5.3808
    -5.3759  -5.3759  -5.3759  -5.3759  -5.3758  -5.3758  -5.3758  -5.3758
    -5.3754  -5.3754  -5.3754  -5.3754  -5.3731  -5.3731  -5.3722  -5.3722
    -5.3722  -5.3722  -4.9715  -4.9715  -4.9715  -4.9715  -4.4723  -4.4723
    -0.6068  -0.6068  -0.6068  -0.6068  -0.4919  -0.4919  -0.4919  -0.4919
     0.1397   0.1398   0.2441   0.2441   0.2441   0.2441   0.3916   0.3917
     0.6804   0.6804   0.7456   0.7456   0.7456   0.7456   0.8819   0.8819
     0.8819   0.8819   1.2092   1.2092   1.2092   1.2092   1.3395   1.3395
     1.3395   1.3395   1.4059   1.4059   1.4501   1.4501   1.4501   1.4501
     1.4722   1.4722   1.4722   1.4722   1.4923   1.4923   1.5305   1.5305
     1.5305   1.5305   1.6060   1.6061   1.6120   1.6120   1.6121   1.6121
     1.7785   1.7785   1.7785   1.7785   1.8273   1.8273   1.8273   1.8273
     1.9511   1.9511   1.9512   1.9512   2.0654   2.0655   2.3627   2.3627
     4.3752   4.3752   4.3752   4.3752   4.7518   4.7518   4.7518   4.7518
     5.9401   5.9402   6.2501   6.2502   6.2503   6.2503   6.4516   6.4516
     6.5410   6.5411   7.1843   7.1844   7.2898   7.2898   7.4262   7.4263
     7.6061   7.6061   7.6061   7.6062   7.6195   7.6195   7.6195   7.6195
     7.7219   7.7221   7.7222

     occupation numbers 
     1.0000   1.0000   1.0000   1.0000   1.0000   1.0000   1.0000   1.0000
     1.0000   1.0000   1.0000   1.0000   1.0000   1.0000   1.0000   1.0000
     1.0000   1.0000   1.0000   1.0000   1.0000   1.0000   1.0000   1.0000
     1.0000   1.0000   1.0000   1.0000   1.0000   1.0000   1.0000   1.0000
     1.0000   1.0000   1.0000   1.0000   1.0000   1.0000   1.0000   1.0000
     1.0000   1.0000   1.0000   1.0000   1.0000   1.0000   1.0000   1.0000
     1.0000   1.0000   1.0000   1.0000   1.0000   1.0000   1.0000   1.0000
     1.0000   1.0000   1.0000   1.0000   1.0000   1.0000   1.0000   1.0000
     1.0000   1.0000   1.0000   1.0000   1.0000   1.0000   1.0000   1.0000
     1.0000   1.0000   1.0000   1.0000   1.0000   1.0000   1.0000   1.0000
     1.0000   1.0000   1.0000   1.0000   1.0000   1.0000   1.0000   1.0000
     1.0000   1.0000   1.0000   1.0000   1.0000   1.0000   1.0000   1.0000
     1.0000   1.0000   1.0000   1.0000   1.0000   1.0000   1.0000   1.0000
     1.0000   1.0000   1.0000   1.0000   1.0000   1.0000   1.0000   1.0000
     1.0000   1.0000   1.0000   1.0000   1.0000   1.0000   1.0000   1.0000
     1.0000   1.0000   1.0000   1.0000   1.0000   1.0000   1.0000   1.0000
     1.0000   1.0000   1.0000   1.0000   1.0000   1.0000   1.0000   1.0000
     1.0000   1.0000   1.0000   1.0000   1.0000   1.0000   1.0000   1.0000
     1.0000   1.0000   1.0000   1.0000   1.0000   1.0000   1.0001   1.0001
     1.0001   1.0001   1.0006   1.0006   1.0007   1.0007   1.0007   1.0007
     1.0180   1.0180   1.0181   1.0181   1.0344   1.0344   1.0344   1.0344
     1.0828   1.0828   1.0828   1.0828   0.9879   0.9879   0.1057   0.1056
     0.0000   0.0000   0.0000   0.0000   0.0000   0.0000   0.0000   0.0000
     0.0000   0.0000   0.0000   0.0000   0.0000   0.0000   0.0000   0.0000
     0.0000   0.0000   0.0000   0.0000   0.0000   0.0000   0.0000   0.0000
     0.0000   0.0000   0.0000   0.0000   0.0000   0.0000   0.0000   0.0000
     0.0000   0.0000   0.0000

          k = 0.0000 0.2500 0.2500 ( 59878 PWs)   bands (ev):

   -18.6023 -18.6022 -18.6022 -18.6021 -18.6020 -18.6019 -18.6019 -18.6018
   -14.0199 -14.0196 -14.0195 -14.0183 -14.0183 -14.0162 -14.0142 -14.0142
   -14.0111 -14.0111 -14.0092 -14.0069 -14.0069 -14.0056 -14.0056 -14.0053
   -13.9696 -13.9695 -13.9695 -13.9695 -13.9695 -13.9695 -13.9694 -13.9693
   -13.9693 -13.9693 -13.9693 -13.9693 -13.9693 -13.9692 -13.9692 -13.9692
   -13.9692 -13.9692 -13.9691 -13.9690 -13.9690 -13.9690 -13.9690 -13.9690
    -9.3130  -9.1797  -9.1796  -9.1152  -9.0433  -8.9759  -8.9759  -8.8929
    -8.8442  -8.8439  -8.8439  -8.8406  -8.8130  -8.8079  -8.7962  -8.7962
    -8.7727  -8.7727  -8.7474  -8.6526  -8.6499  -8.6339  -8.6339  -8.6298
    -5.5964  -5.3884  -5.3867  -5.3843  -5.3803  -5.3803  -5.3795  -5.3795
    -5.3776  -5.3775  -5.3767  -5.3764  -5.3763  -5.3753  -5.3753  -5.3746
    -5.3740  -5.3740  -5.3736  -5.3730  -5.3730  -5.3723  -5.3716  -5.3716
    -5.3716  -5.2245  -5.2245  -5.0750  -4.8694  -4.7225  -4.7225  -4.3692
    -0.6270  -0.5532  -0.5532  -0.4638  -0.4606  -0.3618  -0.3505  -0.3464
    -0.3464  -0.2715  -0.2194  -0.2194   0.6617   0.6671   0.6671   0.7010
     0.7010   0.7344   0.7715   0.7922   0.7942   0.8273   0.8784   0.8784
     0.9721   1.0440   1.0440   1.0945   1.1336   1.2256   1.2417   1.2417
     1.2632   1.2632   1.3484   1.3756   1.3895   1.3895   1.4330   1.4382
     1.4691   1.5009   1.5199   1.5216   1.5216   1.5514   1.5514   1.5550
     1.5550   1.5721   1.5995   1.6104   1.6104   1.6119   1.6119   1.6218
     1.6354   1.6657   1.6868   1.7417   1.7417   1.8939   1.9209   1.9502
     1.9555   1.9585   1.9971   1.9971   2.0250   2.1233   2.1233   2.2837
     4.2849   4.5746   4.5746   4.7995   4.8185   4.8917   5.0838   5.0838
     5.1486   5.2050   5.3857   5.3857   6.1888   6.9661   7.0156   7.0156
     7.0361   7.0361   7.1693   7.1703   7.2090   7.2860   7.3967   7.3967
     7.4214   7.4793   7.4965   7.5508   7.5797   7.5896   7.5896   7.6195
     7.6197   7.6235   7.7146

     occupation numbers 
     1.0000   1.0000   1.0000   1.0000   1.0000   1.0000   1.0000   1.0000
     1.0000   1.0000   1.0000   1.0000   1.0000   1.0000   1.0000   1.0000
     1.0000   1.0000   1.0000   1.0000   1.0000   1.0000   1.0000   1.0000
     1.0000   1.0000   1.0000   1.0000   1.0000   1.0000   1.0000   1.0000
     1.0000   1.0000   1.0000   1.0000   1.0000   1.0000   1.0000   1.0000
     1.0000   1.0000   1.0000   1.0000   1.0000   1.0000   1.0000   1.0000
     1.0000   1.0000   1.0000   1.0000   1.0000   1.0000   1.0000   1.0000
     1.0000   1.0000   1.0000   1.0000   1.0000   1.0000   1.0000   1.0000
     1.0000   1.0000   1.0000   1.0000   1.0000   1.0000   1.0000   1.0000
     1.0000   1.0000   1.0000   1.0000   1.0000   1.0000   1.0000   1.0000
     1.0000   1.0000   1.0000   1.0000   1.0000   1.0000   1.0000   1.0000
     1.0000   1.0000   1.0000   1.0000   1.0000   1.0000   1.0000   1.0000
     1.0000   1.0000   1.0000   1.0000   1.0000   1.0000   1.0000   1.0000
     1.0000   1.0000   1.0000   1.0000   1.0000   1.0000   1.0000   1.0000
     1.0000   1.0000   1.0000   1.0000   1.0000   1.0000   1.0000   1.0000
     1.0000   1.0000   1.0000   1.0000   1.0000   1.0000   1.0000   1.0000
     1.0000   1.0000   1.0000   1.0000   1.0000   1.0000   1.0000   1.0000
     1.0000   1.0000   1.0000   1.0000   1.0000   1.0000   1.0000   1.0000
     1.0000   1.0000   1.0001   1.0001   1.0001   1.0002   1.0002   1.0002
     1.0002   1.0003   1.0005   1.0007   1.0007   1.0007   1.0007   1.0009
     1.0012   1.0024   1.0037   1.0101   1.0101   1.0645   1.0755   1.0827
     1.0832   1.0833   1.0739   1.0739   1.0510   0.8348   0.8348   0.2743
     0.0000   0.0000   0.0000   0.0000   0.0000   0.0000   0.0000   0.0000
     0.0000   0.0000   0.0000   0.0000   0.0000   0.0000   0.0000   0.0000
     0.0000   0.0000   0.0000   0.0000   0.0000   0.0000   0.0000   0.0000
     0.0000   0.0000   0.0000   0.0000   0.0000   0.0000   0.0000   0.0000
     0.0000   0.0000   0.0000

          k = 0.0000 0.2500-0.5000 ( 59982 PWs)   bands (ev):

   -18.6022 -18.6022 -18.6021 -18.6021 -18.6020 -18.6020 -18.6019 -18.6019
   -14.0196 -14.0196 -14.0175 -14.0174 -14.0159 -14.0159 -14.0149 -14.0149
   -14.0105 -14.0104 -14.0095 -14.0094 -14.0079 -14.0078 -14.0056 -14.0056
   -13.9696 -13.9695 -13.9695 -13.9694 -13.9694 -13.9694 -13.9694 -13.9694
   -13.9694 -13.9694 -13.9694 -13.9693 -13.9693 -13.9693 -13.9692 -13.9692
   -13.9692 -13.9691 -13.9691 -13.9691 -13.9691 -13.9691 -13.9690 -13.9690
    -9.2561  -9.2561  -9.1231  -9.1231  -9.0591  -9.0591  -8.9406  -8.9406
    -8.8441  -8.8441  -8.8423  -8.8423  -8.7988  -8.7988  -8.7846  -8.7846
    -8.7122  -8.7122  -8.6977  -8.6977  -8.6846  -8.6846  -8.6340  -8.6340
    -5.4257  -5.4256  -5.3844  -5.3844  -5.3784  -5.3784  -5.3782  -5.3782
    -5.3776  -5.3776  -5.3774  -5.3774  -5.3768  -5.3768  -5.3767  -5.3767
    -5.3753  -5.3753  -5.3737  -5.3737  -5.3728  -5.3728  -5.3723  -5.3723
    -5.3721  -5.3721  -5.0574  -5.0573  -4.9104  -4.9104  -4.5604  -4.5604
    -0.5912  -0.5912  -0.5102  -0.5102  -0.3885  -0.3885  -0.2730  -0.2730
     0.1623   0.1623   0.2112   0.2113   0.2679   0.2680   0.3544   0.3545
     0.6895   0.6895   0.7047   0.7047   0.7499   0.7499   0.8428   0.8428
     0.8837   0.8837   1.0590   1.0590   1.1085   1.1085   1.1926   1.1926
     1.3045   1.3045   1.3174   1.3174   1.3717   1.3717   1.4616   1.4616
     1.4628   1.4628   1.5137   1.5137   1.5367   1.5367   1.5535   1.5535
     1.5787   1.5787   1.5918   1.5918   1.6560   1.6560   1.6992   1.6992
     1.7303   1.7304   1.7670   1.7670   1.8056   1.8056   1.8363   1.8364
     1.8565   1.8565   1.9534   1.9534   2.0039   2.0039   2.1503   2.1503
     4.4370   4.4370   4.7028   4.7029   4.9639   4.9639   5.2828   5.2828
     5.9783   5.9784   6.1963   6.1964   6.2839   6.2841   6.4802   6.4803
     6.5633   6.5634   7.1058   7.1058   7.2226   7.2226   7.2854   7.2854
     7.3475   7.3475   7.4149   7.4149   7.4953   7.4953   7.5319   7.5319
     7.6088   7.6088   7.6140

     occupation numbers 
     1.0000   1.0000   1.0000   1.0000   1.0000   1.0000   1.0000   1.0000
     1.0000   1.0000   1.0000   1.0000   1.0000   1.0000   1.0000   1.0000
     1.0000   1.0000   1.0000   1.0000   1.0000   1.0000   1.0000   1.0000
     1.0000   1.0000   1.0000   1.0000   1.0000   1.0000   1.0000   1.0000
     1.0000   1.0000   1.0000   1.0000   1.0000   1.0000   1.0000   1.0000
     1.0000   1.0000   1.0000   1.0000   1.0000   1.0000   1.0000   1.0000
     1.0000   1.0000   1.0000   1.0000   1.0000   1.0000   1.0000   1.0000
     1.0000   1.0000   1.0000   1.0000   1.0000   1.0000   1.0000   1.0000
     1.0000   1.0000   1.0000   1.0000   1.0000   1.0000   1.0000   1.0000
     1.0000   1.0000   1.0000   1.0000   1.0000   1.0000   1.0000   1.0000
     1.0000   1.0000   1.0000   1.0000   1.0000   1.0000   1.0000   1.0000
     1.0000   1.0000   1.0000   1.0000   1.0000   1.0000   1.0000   1.0000
     1.0000   1.0000   1.0000   1.0000   1.0000   1.0000   1.0000   1.0000
     1.0000   1.0000   1.0000   1.0000   1.0000   1.0000   1.0000   1.0000
     1.0000   1.0000   1.0000   1.0000   1.0000   1.0000   1.0000   1.0000
     1.0000   1.0000   1.0000   1.0000   1.0000   1.0000   1.0000   1.0000
     1.0000   1.0000   1.0000   1.0000   1.0000   1.0000   1.0000   1.0000
     1.0000   1.0000   1.0000   1.0000   1.0000   1.0000   1.0000   1.0000
     1.0000   1.0000   1.0001   1.0001   1.0001   1.0001   1.0002   1.0002
     1.0003   1.0003   1.0004   1.0004   1.0020   1.0020   1.0047   1.0047
     1.0083   1.0083   1.0152   1.0152   1.0263   1.0263   1.0382   1.0382
     1.0471   1.0471   1.0830   1.0830   1.0697   1.0697   0.7429   0.7428
     0.0000   0.0000   0.0000   0.0000   0.0000   0.0000   0.0000   0.0000
     0.0000   0.0000   0.0000   0.0000   0.0000   0.0000   0.0000   0.0000
     0.0000   0.0000   0.0000   0.0000   0.0000   0.0000   0.0000   0.0000
     0.0000   0.0000   0.0000   0.0000   0.0000   0.0000   0.0000   0.0000
     0.0000   0.0000   0.0000

          k = 0.0000-0.5000-0.5000 ( 59916 PWs)   bands (ev):

   -18.6022 -18.6022 -18.6022 -18.6022 -18.6019 -18.6019 -18.6019 -18.6019
   -14.0181 -14.0181 -14.0181 -14.0180 -14.0127 -14.0127 -14.0127 -14.0126
   -14.0126 -14.0126 -14.0126 -14.0126 -14.0072 -14.0072 -14.0072 -14.0072
   -13.9694 -13.9694 -13.9694 -13.9694 -13.9694 -13.9694 -13.9694 -13.9694
   -13.9693 -13.9693 -13.9693 -13.9693 -13.9693 -13.9693 -13.9693 -13.9692
   -13.9691 -13.9691 -13.9691 -13.9691 -13.9691 -13.9691 -13.9691 -13.9691
    -9.2000  -9.2000  -9.2000  -9.2000  -9.0107  -9.0107  -9.0107  -9.0107
    -8.8432  -8.8432  -8.8432  -8.8431  -8.7345  -8.7345  -8.7345  -8.7345
    -8.7305  -8.7305  -8.7305  -8.7305  -8.6699  -8.6698  -8.6698  -8.6698
    -5.3836  -5.3836  -5.3836  -5.3836  -5.3824  -5.3824  -5.3824  -5.3824
    -5.3773  -5.3773  -5.3773  -5.3773  -5.3742  -5.3742  -5.3742  -5.3742
    -5.3741  -5.3741  -5.3741  -5.3741  -5.3722  -5.3722  -5.3722  -5.3722
    -5.2453  -5.2453  -5.2453  -5.2453  -4.7485  -4.7485  -4.7485  -4.7485
    -0.5521  -0.5521  -0.5521  -0.5521   0.0725   0.0726   0.0726   0.0726
     0.2146   0.2146   0.2146   0.2146   0.2956   0.2956   0.2956   0.2957
     0.3977   0.3977   0.3977   0.3978   0.7451   0.7451   0.7451   0.7451
     0.9246   0.9246   0.9246   0.9246   1.1316   1.1316   1.1316   1.1316
     1.1724   1.1724   1.1724   1.1725   1.4313   1.4313   1.4313   1.4313
     1.5066   1.5066   1.5066   1.5066   1.5547   1.5547   1.5547   1.5547
     1.6092   1.6092   1.6092   1.6093   1.6990   1.6990   1.6990   1.6991
     1.7800   1.7801   1.7801   1.7801   1.7976   1.7976   1.7976   1.7976
     1.8858   1.8858   1.8858   1.8858   1.9827   1.9827   1.9827   1.9827
     4.5762   4.5762   4.5762   4.5762   6.0598   6.0598   6.0598   6.0599
     6.0972   6.0973   6.0973   6.0973   6.3612   6.3612   6.3612   6.3613
     6.3870   6.3871   6.3871   6.3871   6.8772   6.8772   6.8772   6.8772
     7.3292   7.3292   7.3292   7.3293   7.5766   7.5767   7.5768   7.6256
     7.6257   7.6257   7.6257

     occupation numbers 
     1.0000   1.0000   1.0000   1.0000   1.0000   1.0000   1.0000   1.0000
     1.0000   1.0000   1.0000   1.0000   1.0000   1.0000   1.0000   1.0000
     1.0000   1.0000   1.0000   1.0000   1.0000   1.0000   1.0000   1.0000
     1.0000   1.0000   1.0000   1.0000   1.0000   1.0000   1.0000   1.0000
     1.0000   1.0000   1.0000   1.0000   1.0000   1.0000   1.0000   1.0000
     1.0000   1.0000   1.0000   1.0000   1.0000   1.0000   1.0000   1.0000
     1.0000   1.0000   1.0000   1.0000   1.0000   1.0000   1.0000   1.0000
     1.0000   1.0000   1.0000   1.0000   1.0000   1.0000   1.0000   1.0000
     1.0000   1.0000   1.0000   1.0000   1.0000   1.0000   1.0000   1.0000
     1.0000   1.0000   1.0000   1.0000   1.0000   1.0000   1.0000   1.0000
     1.0000   1.0000   1.0000   1.0000   1.0000   1.0000   1.0000   1.0000
     1.0000   1.0000   1.0000   1.0000   1.0000   1.0000   1.0000   1.0000
     1.0000   1.0000   1.0000   1.0000   1.0000   1.0000   1.0000   1.0000
     1.0000   1.0000   1.0000   1.0000   1.0000   1.0000   1.0000   1.0000
     1.0000   1.0000   1.0000   1.0000   1.0000   1.0000   1.0000   1.0000
     1.0000   1.0000   1.0000   1.0000   1.0000   1.0000   1.0000   1.0000
     1.0000   1.0000   1.0000   1.0000   1.0000   1.0000   1.0000   1.0000
     1.0000   1.0000   1.0000   1.0000   1.0000   1.0000   1.0000   1.0000
     1.0000   1.0000   1.0000   1.0000   1.0002   1.0002   1.0002   1.0002
     1.0007   1.0007   1.0007   1.0007   1.0047   1.0047   1.0047   1.0047
     1.0185   1.0185   1.0185   1.0185   1.0236   1.0237   1.0237   1.0237
     1.0608   1.0608   1.0608   1.0608   1.0801   1.0801   1.0801   1.0801
     0.0000   0.0000   0.0000   0.0000   0.0000   0.0000   0.0000   0.0000
     0.0000   0.0000   0.0000   0.0000   0.0000   0.0000   0.0000   0.0000
     0.0000   0.0000   0.0000   0.0000   0.0000   0.0000   0.0000   0.0000
     0.0000   0.0000   0.0000   0.0000   0.0000   0.0000   0.0000   0.0000
     0.0000   0.0000   0.0000

          k = 0.2500 0.2500 0.2500 ( 59920 PWs)   bands (ev):

   -18.6023 -18.6021 -18.6021 -18.6021 -18.6020 -18.6020 -18.6020 -18.6018
   -14.0183 -14.0183 -14.0183 -14.0183 -14.0183 -14.0146 -14.0146 -14.0146
   -14.0108 -14.0108 -14.0108 -14.0069 -14.0069 -14.0069 -14.0068 -14.0068
   -13.9695 -13.9695 -13.9695 -13.9695 -13.9695 -13.9695 -13.9693 -13.9693
   -13.9693 -13.9693 -13.9693 -13.9693 -13.9693 -13.9693 -13.9693 -13.9693
   -13.9693 -13.9693 -13.9691 -13.9691 -13.9691 -13.9690 -13.9690 -13.9690
    -9.2929  -9.1603  -9.1603  -9.1603  -9.0288  -9.0288  -9.0288  -8.9336
    -8.8123  -8.8123  -8.8123  -8.8087  -8.8087  -8.7965  -8.7965  -8.7965
    -8.7539  -8.7539  -8.7539  -8.6522  -8.6522  -8.6503  -8.6503  -8.6503
    -5.5298  -5.3868  -5.3868  -5.3798  -5.3794  -5.3794  -5.3794  -5.3791
    -5.3791  -5.3791  -5.3774  -5.3774  -5.3765  -5.3765  -5.3765  -5.3750
    -5.3750  -5.3750  -5.3727  -5.3727  -5.3727  -5.3727  -5.3711  -5.3711
    -5.3711  -5.1611  -5.1611  -5.1611  -4.8089  -4.8089  -4.8089  -4.4585
    -0.4458  -0.4458  -0.3681  -0.3681  -0.3681  -0.3013  -0.2913  -0.2913
    -0.2913  -0.2419  -0.2419  -0.2419   0.6733   0.6733   0.6733   0.6998
     0.6998   0.6998   0.7254   0.7754   0.7754   0.7754   0.7905   0.7905
     1.0005   1.0005   1.0196   1.0196   1.0196   1.1751   1.1751   1.1751
     1.2253   1.2253   1.2253   1.3478   1.3478   1.3478   1.4188   1.4188
     1.4798   1.4798   1.4798   1.4870   1.4870   1.4870   1.5028   1.6257
     1.6389   1.6389   1.6389   1.6413   1.6413   1.6413   1.6723   1.6723
     1.6723   1.6849   1.6849   1.7581   1.7581   1.7581   1.9278   1.9278
     1.9278   1.9406   1.9406   1.9600   1.9600   1.9600   1.9870   2.0031
     4.8522   4.8522   4.9761   5.0991   5.0991   5.0991   5.1586   5.1586
     5.1586   5.3437   5.3437   5.3437   6.3027   7.0287   7.0320   7.0320
     7.0320   7.0336   7.0336   7.0336   7.2287   7.2287   7.3013   7.3013
     7.3013   7.3459   7.3461   7.3462   7.3911   7.4769   7.4769   7.4769
     7.4961   7.4964   7.6782

     occupation numbers 
     1.0000   1.0000   1.0000   1.0000   1.0000   1.0000   1.0000   1.0000
     1.0000   1.0000   1.0000   1.0000   1.0000   1.0000   1.0000   1.0000
     1.0000   1.0000   1.0000   1.0000   1.0000   1.0000   1.0000   1.0000
     1.0000   1.0000   1.0000   1.0000   1.0000   1.0000   1.0000   1.0000
     1.0000   1.0000   1.0000   1.0000   1.0000   1.0000   1.0000   1.0000
     1.0000   1.0000   1.0000   1.0000   1.0000   1.0000   1.0000   1.0000
     1.0000   1.0000   1.0000   1.0000   1.0000   1.0000   1.0000   1.0000
     1.0000   1.0000   1.0000   1.0000   1.0000   1.0000   1.0000   1.0000
     1.0000   1.0000   1.0000   1.0000   1.0000   1.0000   1.0000   1.0000
     1.0000   1.0000   1.0000   1.0000   1.0000   1.0000   1.0000   1.0000
     1.0000   1.0000   1.0000   1.0000   1.0000   1.0000   1.0000   1.0000
     1.0000   1.0000   1.0000   1.0000   1.0000   1.0000   1.0000   1.0000
     1.0000   1.0000   1.0000   1.0000   1.0000   1.0000   1.0000   1.0000
     1.0000   1.0000   1.0000   1.0000   1.0000   1.0000   1.0000   1.0000
     1.0000   1.0000   1.0000   1.0000   1.0000   1.0000   1.0000   1.0000
     1.0000   1.0000   1.0000   1.0000   1.0000   1.0000   1.0000   1.0000
     1.0000   1.0000   1.0000   1.0000   1.0000   1.0000   1.0000   1.0000
     1.0000   1.0000   1.0000   1.0000   1.0000   1.0000   1.0000   1.0000
     1.0000   1.0000   1.0000   1.0000   1.0000   1.0000   1.0000   1.0010
     1.0013   1.0013   1.0013   1.0014   1.0014   1.0014   1.0028   1.0028
     1.0028   1.0036   1.0036   1.0132   1.0132   1.0132   1.0778   1.0778
     1.0778   1.0811   1.0811   1.0833   1.0833   1.0833   1.0786   1.0702
     0.0000   0.0000   0.0000   0.0000   0.0000   0.0000   0.0000   0.0000
     0.0000   0.0000   0.0000   0.0000   0.0000   0.0000   0.0000   0.0000
     0.0000   0.0000   0.0000   0.0000   0.0000   0.0000   0.0000   0.0000
     0.0000   0.0000   0.0000   0.0000   0.0000   0.0000   0.0000   0.0000
     0.0000   0.0000   0.0000

          k = 0.2500 0.2500-0.5000 ( 59954 PWs)   bands (ev):

   -18.6022 -18.6022 -18.6021 -18.6021 -18.6021 -18.6021 -18.6019 -18.6019
   -14.0184 -14.0183 -14.0160 -14.0160 -14.0159 -14.0159 -14.0146 -14.0146
   -14.0107 -14.0107 -14.0094 -14.0094 -14.0093 -14.0093 -14.0069 -14.0069
   -13.9695 -13.9695 -13.9694 -13.9694 -13.9694 -13.9694 -13.9694 -13.9694
   -13.9694 -13.9693 -13.9693 -13.9693 -13.9693 -13.9693 -13.9692 -13.9692
   -13.9692 -13.9692 -13.9692 -13.9692 -13.9691 -13.9691 -13.9690 -13.9690
    -9.2365  -9.2365  -9.1058  -9.1058  -9.1058  -9.1058  -8.9887  -8.9887
    -8.8105  -8.8105  -8.7986  -8.7986  -8.7986  -8.7986  -8.7741  -8.7741
    -8.7143  -8.7142  -8.6966  -8.6966  -8.6965  -8.6965  -8.6512  -8.6512
    -5.3897  -5.3897  -5.3829  -5.3829  -5.3804  -5.3804  -5.3783  -5.3783
    -5.3783  -5.3783  -5.3773  -5.3773  -5.3773  -5.3773  -5.3770  -5.3770
    -5.3768  -5.3768  -5.3715  -5.3715  -5.3715  -5.3715  -5.3709  -5.3709
    -5.3442  -5.3442  -4.9962  -4.9962  -4.9962  -4.9962  -4.6475  -4.6475
    -0.4084  -0.4084  -0.3390  -0.3390  -0.2932  -0.2932  -0.2932  -0.2932
     0.1855   0.1856   0.2335   0.2335   0.2336   0.2336   0.3199   0.3200
     0.6933   0.6933   0.6933   0.6933   0.7012   0.7013   0.7839   0.7839
     0.9178   0.9178   1.0629   1.0629   1.0629   1.0629   1.0875   1.0875
     1.2757   1.2757   1.2757   1.2757   1.2830   1.2830   1.3384   1.3384
     1.4570   1.4570   1.4570   1.4570   1.4740   1.4740   1.6440   1.6441
     1.6642   1.6642   1.6642   1.6642   1.6818   1.6818   1.6850   1.6850
     1.7065   1.7065   1.7637   1.7637   1.7637   1.7637   1.8226   1.8226
     1.8566   1.8566   1.8566   1.8566   1.9428   1.9428   1.9647   1.9647
     4.9772   4.9772   5.0441   5.0442   5.2373   5.2373   5.2373   5.2373
     6.0154   6.0155   6.2304   6.2304   6.2305   6.2305   6.4311   6.4312
     6.6365   6.6365   7.0810   7.0810   7.0810   7.0810   7.2112   7.2112
     7.3220   7.3222   7.3275   7.3275   7.3275   7.3275   7.3587   7.3587
     7.4290   7.4290   7.5554

     occupation numbers 
     1.0000   1.0000   1.0000   1.0000   1.0000   1.0000   1.0000   1.0000
     1.0000   1.0000   1.0000   1.0000   1.0000   1.0000   1.0000   1.0000
     1.0000   1.0000   1.0000   1.0000   1.0000   1.0000   1.0000   1.0000
     1.0000   1.0000   1.0000   1.0000   1.0000   1.0000   1.0000   1.0000
     1.0000   1.0000   1.0000   1.0000   1.0000   1.0000   1.0000   1.0000
     1.0000   1.0000   1.0000   1.0000   1.0000   1.0000   1.0000   1.0000
     1.0000   1.0000   1.0000   1.0000   1.0000   1.0000   1.0000   1.0000
     1.0000   1.0000   1.0000   1.0000   1.0000   1.0000   1.0000   1.0000
     1.0000   1.0000   1.0000   1.0000   1.0000   1.0000   1.0000   1.0000
     1.0000   1.0000   1.0000   1.0000   1.0000   1.0000   1.0000   1.0000
     1.0000   1.0000   1.0000   1.0000   1.0000   1.0000   1.0000   1.0000
     1.0000   1.0000   1.0000   1.0000   1.0000   1.0000   1.0000   1.0000
     1.0000   1.0000   1.0000   1.0000   1.0000   1.0000   1.0000   1.0000
     1.0000   1.0000   1.0000   1.0000   1.0000   1.0000   1.0000   1.0000
     1.0000   1.0000   1.0000   1.0000   1.0000   1.0000   1.0000   1.0000
     1.0000   1.0000   1.0000   1.0000   1.0000   1.0000   1.0000   1.0000
     1.0000   1.0000   1.0000   1.0000   1.0000   1.0000   1.0000   1.0000
     1.0000   1.0000   1.0000   1.0000   1.0000   1.0000   1.0000   1.0000
     1.0000   1.0000   1.0000   1.0000   1.0000   1.0000   1.0015   1.0015
     1.0023   1.0023   1.0023   1.0023   1.0033   1.0033   1.0036   1.0036
     1.0054   1.0054   1.0144   1.0144   1.0144   1.0144   1.0325   1.0326
     1.0471   1.0471   1.0471   1.0471   1.0815   1.0815   1.0832   1.0832
     0.0000   0.0000   0.0000   0.0000   0.0000   0.0000   0.0000   0.0000
     0.0000   0.0000   0.0000   0.0000   0.0000   0.0000   0.0000   0.0000
     0.0000   0.0000   0.0000   0.0000   0.0000   0.0000   0.0000   0.0000
     0.0000   0.0000   0.0000   0.0000   0.0000   0.0000   0.0000   0.0000
     0.0000   0.0000   0.0000

          k = 0.2500-0.5000-0.5000 ( 59912 PWs)   bands (ev):

   -18.6021 -18.6021 -18.6021 -18.6021 -18.6020 -18.6020 -18.6020 -18.6020
   -14.0165 -14.0165 -14.0165 -14.0164 -14.0127 -14.0127 -14.0127 -14.0126
   -14.0126 -14.0126 -14.0126 -14.0126 -14.0088 -14.0088 -14.0088 -14.0088
   -13.9694 -13.9694 -13.9694 -13.9694 -13.9694 -13.9694 -13.9693 -13.9693
   -13.9693 -13.9693 -13.9693 -13.9693 -13.9693 -13.9693 -13.9693 -13.9692
   -13.9692 -13.9692 -13.9692 -13.9692 -13.9692 -13.9691 -13.9691 -13.9691
    -9.1814  -9.1814  -9.1814  -9.1814  -9.0570  -9.0570  -9.0570  -9.0570
    -8.7991  -8.7991  -8.7991  -8.7991  -8.7339  -8.7339  -8.7339  -8.7339
    -8.7311  -8.7311  -8.7311  -8.7311  -8.6860  -8.6860  -8.6860  -8.6860
    -5.3816  -5.3816  -5.3816  -5.3816  -5.3812  -5.3812  -5.3812  -5.3812
    -5.3780  -5.3780  -5.3780  -5.3780  -5.3772  -5.3772  -5.3772  -5.3772
    -5.3739  -5.3739  -5.3739  -5.3739  -5.3703  -5.3703  -5.3703  -5.3703
    -5.1838  -5.1838  -5.1838  -5.1837  -4.8343  -4.8343  -4.8343  -4.8343
    -0.3394  -0.3394  -0.3394  -0.3394   0.0899   0.0899   0.0899   0.0899
     0.1891   0.1891   0.1891   0.1892   0.3192   0.3192   0.3192   0.3192
     0.3515   0.3515   0.3515   0.3515   0.7017   0.7017   0.7017   0.7017
     0.9778   0.9778   0.9778   0.9778   1.1273   1.1273   1.1273   1.1273
     1.1342   1.1342   1.1342   1.1342   1.2910   1.2910   1.2910   1.2910
     1.4085   1.4086   1.4086   1.4086   1.5384   1.5384   1.5384   1.5384
     1.6736   1.6736   1.6736   1.6736   1.6991   1.6991   1.6991   1.6991
     1.7824   1.7824   1.7824   1.7825   1.7952   1.7952   1.7952   1.7952
     1.8544   1.8544   1.8544   1.8544   1.8642   1.8642   1.8642   1.8642
     5.1241   5.1241   5.1241   5.1241   6.0966   6.0966   6.0966   6.0967
     6.1305   6.1306   6.1306   6.1306   6.3093   6.3093   6.3093   6.3094
     6.3335   6.3336   6.3336   6.3336   6.8859   6.8859   6.8859   6.8859
     7.2224   7.2224   7.2224   7.2224   7.2674   7.2674   7.2674   7.2677
     7.6317   7.6317   7.6317

     occupation numbers 
     1.0000   1.0000   1.0000   1.0000   1.0000   1.0000   1.0000   1.0000
     1.0000   1.0000   1.0000   1.0000   1.0000   1.0000   1.0000   1.0000
     1.0000   1.0000   1.0000   1.0000   1.0000   1.0000   1.0000   1.0000
     1.0000   1.0000   1.0000   1.0000   1.0000   1.0000   1.0000   1.0000
     1.0000   1.0000   1.0000   1.0000   1.0000   1.0000   1.0000   1.0000
     1.0000   1.0000   1.0000   1.0000   1.0000   1.0000   1.0000   1.0000
     1.0000   1.0000   1.0000   1.0000   1.0000   1.0000   1.0000   1.0000
     1.0000   1.0000   1.0000   1.0000   1.0000   1.0000   1.0000   1.0000
     1.0000   1.0000   1.0000   1.0000   1.0000   1.0000   1.0000   1.0000
     1.0000   1.0000   1.0000   1.0000   1.0000   1.0000   1.0000   1.0000
     1.0000   1.0000   1.0000   1.0000   1.0000   1.0000   1.0000   1.0000
     1.0000   1.0000   1.0000   1.0000   1.0000   1.0000   1.0000   1.0000
     1.0000   1.0000   1.0000   1.0000   1.0000   1.0000   1.0000   1.0000
     1.0000   1.0000   1.0000   1.0000   1.0000   1.0000   1.0000   1.0000
     1.0000   1.0000   1.0000   1.0000   1.0000   1.0000   1.0000   1.0000
     1.0000   1.0000   1.0000   1.0000   1.0000   1.0000   1.0000   1.0000
     1.0000   1.0000   1.0000   1.0000   1.0000   1.0000   1.0000   1.0000
     1.0000   1.0000   1.0000   1.0000   1.0000   1.0000   1.0000   1.0000
     1.0000   1.0000   1.0000   1.0000   1.0001   1.0001   1.0001   1.0001
     1.0028   1.0028   1.0028   1.0028   1.0047   1.0047   1.0047   1.0047
     1.0191   1.0191   1.0191   1.0191   1.0229   1.0229   1.0229   1.0229
     1.0462   1.0462   1.0462   1.0462   1.0507   1.0507   1.0507   1.0507
     0.0000   0.0000   0.0000   0.0000   0.0000   0.0000   0.0000   0.0000
     0.0000   0.0000   0.0000   0.0000   0.0000   0.0000   0.0000   0.0000
     0.0000   0.0000   0.0000   0.0000   0.0000   0.0000   0.0000   0.0000
     0.0000   0.0000   0.0000   0.0000   0.0000   0.0000   0.0000   0.0000
     0.0000   0.0000   0.0000

          k =-0.5000-0.5000-0.5000 ( 60016 PWs)   bands (ev):

   -18.6021 -18.6021 -18.6021 -18.6021 -18.6021 -18.6021 -18.6021 -18.6021
   -14.0127 -14.0127 -14.0127 -14.0127 -14.0127 -14.0127 -14.0126 -14.0126
   -14.0126 -14.0126 -14.0126 -14.0126 -14.0126 -14.0126 -14.0126 -14.0126
   -13.9693 -13.9693 -13.9693 -13.9693 -13.9693 -13.9693 -13.9693 -13.9693
   -13.9693 -13.9693 -13.9693 -13.9693 -13.9693 -13.9693 -13.9693 -13.9693
   -13.9693 -13.9693 -13.9693 -13.9693 -13.9693 -13.9692 -13.9692 -13.9692
    -9.1292  -9.1292  -9.1292  -9.1292  -9.1292  -9.1292  -9.1292  -9.1292
    -8.7325  -8.7325  -8.7325  -8.7325  -8.7325  -8.7325  -8.7325  -8.7325
    -8.7325  -8.7325  -8.7325  -8.7325  -8.7325  -8.7325  -8.7325  -8.7325
    -5.3798  -5.3798  -5.3798  -5.3798  -5.3798  -5.3798  -5.3798  -5.3798
    -5.3798  -5.3798  -5.3798  -5.3798  -5.3798  -5.3798  -5.3798  -5.3798
    -5.3710  -5.3710  -5.3710  -5.3710  -5.3710  -5.3710  -5.3710  -5.3710
    -5.0206  -5.0206  -5.0206  -5.0206  -5.0206  -5.0206  -5.0206  -5.0206
     0.1356   0.1356   0.1356   0.1356   0.1356   0.1357   0.1357   0.1357
     0.1357   0.1357   0.1357   0.1357   0.1357   0.1357   0.1357   0.1357
     0.4257   0.4257   0.4257   0.4257   0.4257   0.4257   0.4257   0.4257
     1.1138   1.1138   1.1138   1.1138   1.1138   1.1138   1.1138   1.1138
     1.1139   1.1139   1.1139   1.1139   1.1139   1.1139   1.1139   1.1139
     1.3627   1.3627   1.3627   1.3627   1.3627   1.3627   1.3627   1.3628
     1.7853   1.7853   1.7853   1.7853   1.7853   1.7853   1.7853   1.7853
     1.7853   1.7853   1.7853   1.7853   1.7853   1.7853   1.7853   1.7853
     1.7977   1.7978   1.7978   1.7978   1.7978   1.7978   1.7978   1.7978
     6.1951   6.1951   6.1951   6.1952   6.1952   6.1952   6.1952   6.1952
     6.1952   6.1952   6.1952   6.1953   6.1953   6.1953   6.1953   6.1953
     6.2329   6.2329   6.2329   6.2329   6.2330   6.2330   6.2330   6.2330
     7.0646   7.0646   7.0646   7.0646   7.0646   7.0646   7.0646   7.0646
     7.7183   7.7183   7.7183

     occupation numbers 
     1.0000   1.0000   1.0000   1.0000   1.0000   1.0000   1.0000   1.0000
     1.0000   1.0000   1.0000   1.0000   1.0000   1.0000   1.0000   1.0000
     1.0000   1.0000   1.0000   1.0000   1.0000   1.0000   1.0000   1.0000
     1.0000   1.0000   1.0000   1.0000   1.0000   1.0000   1.0000   1.0000
     1.0000   1.0000   1.0000   1.0000   1.0000   1.0000   1.0000   1.0000
     1.0000   1.0000   1.0000   1.0000   1.0000   1.0000   1.0000   1.0000
     1.0000   1.0000   1.0000   1.0000   1.0000   1.0000   1.0000   1.0000
     1.0000   1.0000   1.0000   1.0000   1.0000   1.0000   1.0000   1.0000
     1.0000   1.0000   1.0000   1.0000   1.0000   1.0000   1.0000   1.0000
     1.0000   1.0000   1.0000   1.0000   1.0000   1.0000   1.0000   1.0000
     1.0000   1.0000   1.0000   1.0000   1.0000   1.0000   1.0000   1.0000
     1.0000   1.0000   1.0000   1.0000   1.0000   1.0000   1.0000   1.0000
     1.0000   1.0000   1.0000   1.0000   1.0000   1.0000   1.0000   1.0000
     1.0000   1.0000   1.0000   1.0000   1.0000   1.0000   1.0000   1.0000
     1.0000   1.0000   1.0000   1.0000   1.0000   1.0000   1.0000   1.0000
     1.0000   1.0000   1.0000   1.0000   1.0000   1.0000   1.0000   1.0000
     1.0000   1.0000   1.0000   1.0000   1.0000   1.0000   1.0000   1.0000
     1.0000   1.0000   1.0000   1.0000   1.0000   1.0000   1.0000   1.0000
     1.0000   1.0000   1.0000   1.0000   1.0000   1.0000   1.0000   1.0000
     1.0199   1.0199   1.0199   1.0199   1.0199   1.0199   1.0199   1.0199
     1.0199   1.0199   1.0199   1.0199   1.0199   1.0199   1.0199   1.0199
     1.0237   1.0237   1.0237   1.0237   1.0237   1.0237   1.0237   1.0237
     0.0000   0.0000   0.0000   0.0000   0.0000   0.0000   0.0000   0.0000
     0.0000   0.0000   0.0000   0.0000   0.0000   0.0000   0.0000   0.0000
     0.0000   0.0000   0.0000   0.0000   0.0000   0.0000   0.0000   0.0000
     0.0000   0.0000   0.0000   0.0000   0.0000   0.0000   0.0000   0.0000
     0.0000   0.0000   0.0000

     the Fermi energy is     2.2435 ev

!    total energy              =  -16565.85617382 Ry
     estimated scf accuracy    <          1.7E-09 Ry
     smearing contrib. (-TS)   =       0.03889907 Ry
     internal energy E=F+TS    =  -16565.89507289 Ry

     The total energy is F=E-TS. E is the sum of the following terms:
     one-electron contribution =    -766.97912269 Ry
     hartree contribution      =     548.73265327 Ry
     xc contribution           =   -1598.26960195 Ry
     ewald contribution        =   -1229.22289246 Ry
[...]
     atom   24 type  2   force =    -0.00000000   -0.00000000    0.00021115
     atom   25 type  2   force =    -0.00000000   -0.00020855   -0.00000000
     atom   26 type  2   force =    -0.00000000   -0.00021075    0.00000000
     atom   27 type  2   force =    -0.00000000    0.00020855   -0.00000000
     atom   28 type  2   force =    -0.00000000    0.00021075    0.00000000
     atom   29 type  2   force =     0.00000000   -0.00021075   -0.00000000
     atom   30 type  2   force =     0.00000000   -0.00021115    0.00000000
     atom   31 type  2   force =     0.00000000    0.00021075   -0.00000000
     atom   32 type  2   force =    -0.00000000    0.00021115   -0.00000000
     atom   33 type  2   force =    -0.00020855   -0.00000000   -0.00000000
     atom   34 type  2   force =    -0.00021075   -0.00000000    0.00000000
     atom   35 type  2   force =    -0.00021075    0.00000000   -0.00000000
     atom   36 type  2   force =    -0.00021115    0.00000000    0.00000000
     atom   37 type  2   force =     0.00020855   -0.00000000   -0.00000000
     atom   38 type  2   force =     0.00021075   -0.00000000    0.00000000
     atom   39 type  2   force =     0.00021075    0.00000000   -0.00000000
     atom   40 type  2   force =     0.00021115   -0.00000000   -0.00000000
     The local contribution  to forces
     atom    1 type  1   force =     0.00005078    0.00005078    0.00005078
     atom    2 type  1   force =     0.00005078    0.00005078   -0.00005078
     atom    3 type  1   force =     0.00005078   -0.00005078    0.00005078
     atom    4 type  1   force =     0.00005078   -0.00005078   -0.00005078
     atom    5 type  1   force =    -0.00005078    0.00005078    0.00005078
     atom    6 type  1   force =    -0.00005078    0.00005078   -0.00005078
     atom    7 type  1   force =    -0.00005078   -0.00005078    0.00005078
     atom    8 type  1   force =    -0.00005078   -0.00005078   -0.00005078
     atom    9 type  3   force =     0.00000000    0.00000000    0.00000000
     atom   10 type  3   force =     0.00000000    0.00000000    0.00000000
     atom   11 type  3   force =     0.00000000    0.00000000    0.00000000
     atom   12 type  3   force =     0.00000000    0.00000000    0.00000000
     atom   13 type  3   force =     0.00000000    0.00000000    0.00000000
     atom   14 type  3   force =     0.00000000    0.00000000    0.00000000
     atom   15 type  3   force =     0.00000000    0.00000000    0.00000000
     atom   16 type  3   force =     0.00000000    0.00000000    0.00000000
     atom   17 type  2   force =    -0.00000000    0.00000000    0.00020780
     atom   18 type  2   force =     0.00000000    0.00000000   -0.00020780
     atom   19 type  2   force =     0.00000000   -0.00000000    0.00020286
     atom   20 type  2   force =     0.00000000    0.00000000   -0.00020286
     atom   21 type  2   force =    -0.00000000    0.00000000    0.00020286
     atom   22 type  2   force =     0.00000000    0.00000000   -0.00020286
     atom   23 type  2   force =     0.00000000    0.00000000    0.00020615
     atom   24 type  2   force =    -0.00000000   -0.00000000   -0.00020615
     atom   25 type  2   force =     0.00000000    0.00020780    0.00000000
     atom   26 type  2   force =     0.00000000    0.00020286    0.00000000
     atom   27 type  2   force =     0.00000000   -0.00020780    0.00000000
     atom   28 type  2   force =     0.00000000   -0.00020286    0.00000000
     atom   29 type  2   force =    -0.00000000    0.00020286    0.00000000
     atom   30 type  2   force =     0.00000000    0.00020615    0.00000000
     atom   31 type  2   force =     0.00000000   -0.00020286    0.00000000
     atom   32 type  2   force =     0.00000000   -0.00020615    0.00000000
     atom   33 type  2   force =     0.00020780   -0.00000000    0.00000000
     atom   34 type  2   force =     0.00020286    0.00000000    0.00000000
     atom   35 type  2   force =     0.00020286   -0.00000000    0.00000000
     atom   36 type  2   force =     0.00020615    0.00000000    0.00000000
     atom   37 type  2   force =    -0.00020780   -0.00000000    0.00000000
     atom   38 type  2   force =    -0.00020286    0.00000000    0.00000000
     atom   39 type  2   force =    -0.00020286    0.00000000   -0.00000000
     atom   40 type  2   force =    -0.00020615    0.00000000   -0.00000000
     The core correction contribution to forces
     atom    1 type  1   force =     0.00000006    0.00000006    0.00000006
     atom    2 type  1   force =     0.00000006    0.00000006   -0.00000006
     atom    3 type  1   force =     0.00000006   -0.00000006    0.00000006
     atom    4 type  1   force =     0.00000006   -0.00000006   -0.00000006
     atom    5 type  1   force =    -0.00000006    0.00000006    0.00000006
     atom    6 type  1   force =    -0.00000006    0.00000006   -0.00000006
     atom    7 type  1   force =    -0.00000006   -0.00000006    0.00000006
     atom    8 type  1   force =    -0.00000006   -0.00000006   -0.00000006
     atom    9 type  3   force =     0.00000000    0.00000000    0.00000000
     atom   10 type  3   force =    -0.00000000   -0.00000000    0.00000000
     atom   11 type  3   force =    -0.00000000    0.00000000   -0.00000000
     atom   12 type  3   force =     0.00000000   -0.00000000   -0.00000000
     atom   13 type  3   force =     0.00000000   -0.00000000   -0.00000000
     atom   14 type  3   force =    -0.00000000    0.00000000   -0.00000000
     atom   15 type  3   force =    -0.00000000   -0.00000000    0.00000000
     atom   16 type  3   force =     0.00000000    0.00000000    0.00000000
     atom   17 type  2   force =     0.00000000    0.00000000    0.00000060
     atom   18 type  2   force =     0.00000000    0.00000000   -0.00000060
     atom   19 type  2   force =     0.00000000   -0.00000000    0.00000045
     atom   20 type  2   force =     0.00000000   -0.00000000   -0.00000045
     atom   21 type  2   force =    -0.00000000    0.00000000    0.00000045
     atom   22 type  2   force =    -0.00000000    0.00000000   -0.00000045
     atom   23 type  2   force =    -0.00000000   -0.00000000    0.00000046
     atom   24 type  2   force =     0.00000000    0.00000000   -0.00000046
     atom   25 type  2   force =     0.00000000    0.00000060    0.00000000
     atom   26 type  2   force =     0.00000000    0.00000045   -0.00000000
     atom   27 type  2   force =     0.00000000   -0.00000060    0.00000000
     atom   28 type  2   force =     0.00000000   -0.00000045   -0.00000000
     atom   29 type  2   force =    -0.00000000    0.00000045    0.00000000
     atom   30 type  2   force =    -0.00000000    0.00000046   -0.00000000
     atom   31 type  2   force =    -0.00000000   -0.00000045    0.00000000
     atom   32 type  2   force =     0.00000000   -0.00000046    0.00000000
     atom   33 type  2   force =     0.00000060    0.00000000    0.00000000
     atom   34 type  2   force =     0.00000045    0.00000000   -0.00000000
     atom   35 type  2   force =     0.00000045   -0.00000000    0.00000000
     atom   36 type  2   force =     0.00000046   -0.00000000   -0.00000000
     atom   37 type  2   force =    -0.00000060    0.00000000    0.00000000
     atom   38 type  2   force =    -0.00000045    0.00000000   -0.00000000
     atom   39 type  2   force =    -0.00000045   -0.00000000    0.00000000
     atom   40 type  2   force =    -0.00000046    0.00000000    0.00000000
     The Hubbard contrib.    to forces
     atom    1 type  1   force =     0.00000000    0.00000000    0.00000000
     atom    2 type  1   force =     0.00000000    0.00000000    0.00000000
     atom    3 type  1   force =     0.00000000    0.00000000    0.00000000
     atom    4 type  1   force =     0.00000000    0.00000000    0.00000000
     atom    5 type  1   force =     0.00000000    0.00000000    0.00000000
     atom    6 type  1   force =     0.00000000    0.00000000    0.00000000
     atom    7 type  1   force =     0.00000000    0.00000000    0.00000000
     atom    8 type  1   force =     0.00000000    0.00000000    0.00000000
     atom    9 type  3   force =     0.00000000    0.00000000    0.00000000
     atom   10 type  3   force =     0.00000000    0.00000000    0.00000000
     atom   11 type  3   force =     0.00000000    0.00000000    0.00000000
     atom   12 type  3   force =     0.00000000    0.00000000    0.00000000
     atom   13 type  3   force =     0.00000000    0.00000000    0.00000000
     atom   14 type  3   force =     0.00000000    0.00000000    0.00000000
     atom   15 type  3   force =     0.00000000    0.00000000    0.00000000
     atom   16 type  3   force =     0.00000000    0.00000000    0.00000000
     atom   17 type  2   force =     0.00000000    0.00000000    0.00000000
     atom   18 type  2   force =     0.00000000    0.00000000    0.00000000
     atom   19 type  2   force =     0.00000000    0.00000000    0.00000000
     atom   20 type  2   force =     0.00000000    0.00000000    0.00000000
     atom   21 type  2   force =     0.00000000    0.00000000    0.00000000
     atom   22 type  2   force =     0.00000000    0.00000000    0.00000000
     atom   23 type  2   force =     0.00000000    0.00000000    0.00000000
     atom   24 type  2   force =     0.00000000    0.00000000    0.00000000
     atom   25 type  2   force =     0.00000000    0.00000000    0.00000000
     atom   26 type  2   force =     0.00000000    0.00000000    0.00000000
     atom   27 type  2   force =     0.00000000    0.00000000    0.00000000
     atom   28 type  2   force =     0.00000000    0.00000000    0.00000000
     atom   29 type  2   force =     0.00000000    0.00000000    0.00000000
     atom   30 type  2   force =     0.00000000    0.00000000    0.00000000
     atom   31 type  2   force =     0.00000000    0.00000000    0.00000000
     atom   32 type  2   force =     0.00000000    0.00000000    0.00000000
     atom   33 type  2   force =     0.00000000    0.00000000    0.00000000
     atom   34 type  2   force =     0.00000000    0.00000000    0.00000000
     atom   35 type  2   force =     0.00000000    0.00000000    0.00000000
     atom   36 type  2   force =     0.00000000    0.00000000    0.00000000
     atom   37 type  2   force =     0.00000000    0.00000000    0.00000000
     atom   38 type  2   force =     0.00000000    0.00000000    0.00000000
     atom   39 type  2   force =     0.00000000    0.00000000    0.00000000
     atom   40 type  2   force =     0.00000000    0.00000000    0.00000000
     The SCF correction term to forces
     atom    1 type  1   force =    -0.00000077   -0.00000077   -0.00000077
     atom    2 type  1   force =    -0.00000077   -0.00000077    0.00000077
     atom    3 type  1   force =    -0.00000077    0.00000077   -0.00000077
     atom    4 type  1   force =    -0.00000077    0.00000077    0.00000077
     atom    5 type  1   force =     0.00000077   -0.00000077   -0.00000077
     atom    6 type  1   force =     0.00000077   -0.00000077    0.00000077
     atom    7 type  1   force =     0.00000077    0.00000077   -0.00000077
     atom    8 type  1   force =     0.00000077    0.00000077    0.00000077
     atom    9 type  3   force =    -0.00000000   -0.00000000    0.00000000
     atom   10 type  3   force =     0.00000000    0.00000000   -0.00000000
     atom   11 type  3   force =     0.00000000   -0.00000000    0.00000000
     atom   12 type  3   force =    -0.00000000   -0.00000000   -0.00000000
     atom   13 type  3   force =     0.00000000   -0.00000000    0.00000000
     atom   14 type  3   force =    -0.00000000    0.00000000   -0.00000000
     atom   15 type  3   force =    -0.00000000    0.00000000    0.00000000
     atom   16 type  3   force =    -0.00000000   -0.00000000   -0.00000000
     atom   17 type  2   force =    -0.00000000   -0.00000000   -0.00000569
     atom   18 type  2   force =    -0.00000000   -0.00000000    0.00000569
     atom   19 type  2   force =    -0.00000000   -0.00000000    0.00000206
     atom   20 type  2   force =     0.00000000   -0.00000000   -0.00000206
     atom   21 type  2   force =    -0.00000000   -0.00000000    0.00000206
     atom   22 type  2   force =    -0.00000000   -0.00000000   -0.00000206
     atom   23 type  2   force =     0.00000000    0.00000000   -0.00000159
     atom   24 type  2   force =     0.00000000    0.00000000    0.00000159
     atom   25 type  2   force =     0.00000000   -0.00000569   -0.00000000
     atom   26 type  2   force =     0.00000000    0.00000206   -0.00000000
     atom   27 type  2   force =     0.00000000    0.00000569   -0.00000000
     atom   28 type  2   force =     0.00000000   -0.00000206   -0.00000000
     atom   29 type  2   force =    -0.00000000    0.00000206   -0.00000000
     atom   30 type  2   force =    -0.00000000   -0.00000159   -0.00000000
     atom   31 type  2   force =    -0.00000000   -0.00000206   -0.00000000
     atom   32 type  2   force =     0.00000000    0.00000159   -0.00000000
     atom   33 type  2   force =    -0.00000569    0.00000000   -0.00000000
     atom   34 type  2   force =     0.00000206   -0.00000000   -0.00000000
     atom   35 type  2   force =     0.00000206    0.00000000   -0.00000000
     atom   36 type  2   force =    -0.00000159    0.00000000   -0.00000000
     atom   37 type  2   force =     0.00000569    0.00000000   -0.00000000
     atom   38 type  2   force =    -0.00000206   -0.00000000   -0.00000000
     atom   39 type  2   force =    -0.00000206   -0.00000000   -0.00000000
     atom   40 type  2   force =     0.00000159    0.00000000   -0.00000000

     Total force =     0.000020     Total SCF correction =     0.000017
     SCF correction compared to forces is large: reduce conv_thr to get better values


     Computing stress (Cartesian axis) and pressure

          total   stress  (Ry/bohr**3)                   (kbar)     P=       -2.00
  -0.00001361   0.00000000   0.00000000           -2.00        0.00        0.00
   0.00000000  -0.00001361   0.00000000            0.00       -2.00        0.00
   0.00000000   0.00000000  -0.00001361            0.00        0.00       -2.00

     kinetic stress (kbar)   3450.62      0.00      0.00
                                0.00   3450.62      0.00
                                0.00      0.00   3450.62

     local   stress (kbar)   -368.81      0.00     -0.00
                                0.00   -368.81      0.00
                               -0.00      0.00   -368.81

     nonloc. stress (kbar)    893.03      0.00      0.00
                                0.00    893.03      0.00
                                0.00      0.00    893.03

     hartree stress (kbar)   1917.78     -0.00      0.00
                               -0.00   1917.78      0.00
                                0.00      0.00   1917.78

     exc-cor stress (kbar)  12007.58      0.00     -0.00
                                0.00  12007.58      0.00
                               -0.00      0.00  12007.58

     corecor stress (kbar) -13606.17      0.00     -0.00
                                0.00 -13606.17      0.00
                               -0.00      0.00 -13606.17

     ewald   stress (kbar)  -4296.03     -0.00     -0.00
                               -0.00  -4296.03     -0.00
                               -0.00     -0.00  -4296.03

     hubbard stress (kbar)      0.00      0.00      0.00
                                0.00      0.00      0.00
                                0.00      0.00      0.00

     DFT-D   stress (kbar)      0.00      0.00      0.00
                                0.00      0.00      0.00
                                0.00      0.00      0.00

     XDM     stress (kbar)      0.00      0.00      0.00
                                0.00      0.00      0.00
                                0.00      0.00      0.00

     dft-nl  stress (kbar)      0.00      0.00      0.00
                                0.00      0.00      0.00
                                0.00      0.00      0.00

     TS-vdW  stress (kbar)      0.00      0.00      0.00
                                0.00      0.00      0.00
                                0.00      0.00      0.00



     Writing output data file ../../out/aiida.save/

     init_run     :    526.19s CPU    528.75s WALL (       1 calls)
     electrons    :  22561.93s CPU  22638.38s WALL (       1 calls)
     forces       :    310.20s CPU    310.77s WALL (       1 calls)
     stress       :    400.00s CPU    401.46s WALL (       1 calls)

     Called by init_run:
     wfcinit      :    519.05s CPU    521.12s WALL (       1 calls)
     wfcinit:atom :      0.41s CPU      0.69s WALL (      10 calls)
     wfcinit:wfcr :    515.74s CPU    517.31s WALL (      10 calls)
     potinit      :      1.47s CPU      1.52s WALL (       1 calls)
     hinit0       :      0.50s CPU      0.53s WALL (       1 calls)

     Called by electrons:
     c_bands      :  20765.65s CPU  20823.75s WALL (      15 calls)
     sum_band     :   1712.45s CPU   1725.45s WALL (      15 calls)
     v_of_rho     :      6.55s CPU      6.76s WALL (      15 calls)
     v_h          :      0.58s CPU      0.60s WALL (      15 calls)
     v_xc         :      6.77s CPU      6.99s WALL (      17 calls)
     newd         :     67.38s CPU     72.91s WALL (      15 calls)
     PAW_pot      :     13.99s CPU     13.99s WALL (      15 calls)
     mix_rho      :      2.02s CPU      2.03s WALL (      15 calls)

     Called by c_bands:
     init_us_2    :     26.47s CPU     26.52s WALL (     330 calls)
     cegterg      :  20686.65s CPU  20744.66s WALL (     150 calls)

     Called by sum_band:
     sum_band:wei :      0.03s CPU      0.03s WALL (      15 calls)
     sum_band:loo :   1606.27s CPU   1612.64s WALL (      15 calls)
     sum_band:buf :      7.35s CPU      7.35s WALL (     150 calls)
     sum_band:ini :     12.26s CPU     12.27s WALL (     150 calls)
     sum_band:cal :   1089.90s CPU   1090.43s WALL (     150 calls)
     sum_band:bec :      0.46s CPU      0.46s WALL (     150 calls)
     addusdens    :    103.97s CPU    110.52s WALL (      15 calls)
     addusd:skk   :      0.67s CPU      0.97s WALL (      45 calls)
     addusd:dgemm :     75.39s CPU     80.80s WALL (      45 calls)
     addusd:qvan2 :     27.03s CPU     27.05s WALL (      45 calls)

     Called by *egterg:
     cdiaghg      :    153.38s CPU    153.41s WALL (     919 calls)
     cegterg:over :   2719.91s CPU   2720.57s WALL (     779 calls)
     cegterg:upda :   1583.00s CPU   1586.19s WALL (     779 calls)
     cegterg:last :   4297.12s CPU   4298.01s WALL (     338 calls)
     h_psi        :   8297.50s CPU   8339.39s WALL (     939 calls)
     s_psi        :   3010.23s CPU   3010.92s WALL (     939 calls)
     g_psi        :     13.32s CPU     13.32s WALL (     779 calls)

     Called by h_psi:
     h_psi:calbec :   2935.59s CPU   2936.56s WALL (     939 calls)
     vloc_psi     :   2341.58s CPU   2377.11s WALL (     939 calls)
     add_vuspsi   :   3009.51s CPU   3010.07s WALL (     939 calls)

     General routines
     calbec       :   4383.82s CPU   4385.39s WALL (    1139 calls)
     fft          :      5.47s CPU      5.74s WALL (     191 calls)
     ffts         :      0.44s CPU      0.45s WALL (      15 calls)
     fftw         :   2205.18s CPU   2233.24s WALL (  202208 calls)

     Parallel routines
     fft_scatt_xy :    507.38s CPU    511.33s WALL (  202414 calls)
     fft_scatt_yz :    298.10s CPU    312.18s WALL (  202414 calls)

     PAW routines
     PAW_pot      :     13.99s CPU     13.99s WALL (      15 calls)
     PAW_symme    :      0.04s CPU      0.04s WALL (      30 calls)

     PWSCF        :      6h36m CPU      6h38m WALL


   This run was terminated on:   2:20:17   4Apr2024            

=------------------------------------------------------------------------------=
   JOB DONE.
=------------------------------------------------------------------------------=
