### Running on host: fes33

     Program PWSCF v.6.7MaX starts on 11Apr2024 at  4:27:31 

     This program is part of the open-source Quantum ESPRESSO suite
     for quantum simulation of materials; please cite
         "P. Giannozzi et al., J. Phys.:Condens. Matter 21 395502 (2009);
         "P. Giannozzi et al., J. Phys.:Condens. Matter 29 465901 (2017);
          URL http://www.quantum-espresso.org", 
     in publications or presentations arising from this work. More details at
     http://www.quantum-espresso.org/quote

     Parallel version (MPI), running on     4 processors

     MPI processes distributed on     1 nodes
     R & G space division:  proc/nbgrp/npool/nimage =       4
     Reading input from pwscf_kpoints-10.in

     Current dimensions of program PWSCF are:
     Max number of different atomic species (ntypx) = 10
     Max number of k-points (npk) =  40000
     Max angular momentum in pseudopotentials (lmaxx) =  3
     file Pb.pbe-dn-kjpaw_psl.0.2.2.UPF: wavefunction(s)  6S renormalized

     Subspace diagonalization in iterative solution of the eigenvalue problem:
     one sub-group per band group will be used
     scalapack distributed-memory algorithm (size of sub-group:  2*  2 procs)

     Found symmetry operation: I + (  0.0000  0.0000  0.5000)
     This is a supercell, fractional translations are disabled
     Message from routine setup:
     using ibrav=0 with symmetry is DISCOURAGED, use correct ibrav instead

     Parallelization info
     --------------------
     sticks:   dense  smooth     PW     G-vecs:    dense   smooth      PW
     Min        1853    1853    498               119942   119942   16658
     Max        1856    1856    499               119943   119943   16661
     Sum        7417    7417   1993               479769   479769   66635



     bravais-lattice index     =            0
     lattice parameter (alat)  =      24.1188  a.u.
     unit-cell volume          =   14030.3801 (a.u.)^3
     number of atoms/cell      =           40
     number of atomic types    =            3
     number of electrons       =       352.00
     number of Kohn-Sham states=          211
     kinetic-energy cutoff     =      40.0000  Ry
     charge density cutoff     =     160.0000  Ry
     scf convergence threshold =      8.0E-09
     mixing beta               =       0.4000
     number of iterations used =            8  plain     mixing
     Exchange-correlation= SLA  PW   PBX  PBC
                           (   1   4   3   4   0   0   0)

     celldm(1)=  24.118843  celldm(2)=   0.000000  celldm(3)=   0.000000
     celldm(4)=   0.000000  celldm(5)=   0.000000  celldm(6)=   0.000000

     crystal axes: (cart. coord. in units of alat)
               a(1) = (   1.000000   0.000000   0.000000 )  
               a(2) = (   0.000000   1.000000   0.000000 )  
               a(3) = (   0.000000   0.000000   1.000000 )  

     reciprocal axes: (cart. coord. in units 2 pi/alat)
               b(1) = (  1.000000  0.000000  0.000000 )  
               b(2) = (  0.000000  1.000000  0.000000 )  
               b(3) = (  0.000000  0.000000  1.000000 )  


     PseudoPot. # 1 for Cs read from file:
     ../../pseudo/Cs_pbe_v1.uspp.F.UPF
     MD5 check sum: 3476d69cb178dfad3ffaa59df4e07ca4
     Pseudo is Ultrasoft + core correction, Zval =  9.0
     Generated by new atomic code, or converted to UPF format
     Using radial grid of  905 points,  6 beta functions with: 
                l(1) =   0
                l(2) =   0
                l(3) =   1
                l(4) =   1
                l(5) =   2
                l(6) =   2
     Q(r) pseudized with  6 coefficients,  rinner =    1.500   1.500   1.500
                                                       1.500   1.500

     PseudoPot. # 2 for I  read from file:
     ../../pseudo/I.pbe-n-kjpaw_psl.0.2.UPF
     MD5 check sum: d4ef18d9c8f18dc85e5843bca1e50dc0
     Pseudo is Projector augmented-wave + core cor, Zval =  7.0
     Generated using "atomic" code by A. Dal Corso  v.5.0.99 svn rev. 10869
     Shape of augmentation charge: PSQ
     Using radial grid of 1247 points,  4 beta functions with: 
                l(1) =   0
                l(2) =   0
                l(3) =   1
                l(4) =   1
     Q(r) pseudized with 0 coefficients 


     PseudoPot. # 3 for Pb read from file:
     ../../pseudo/Pb.pbe-dn-kjpaw_psl.0.2.2.UPF
     MD5 check sum: 9d431e6316058b74ade52399a6cf67da
     Pseudo is Projector augmented-wave + core cor, Zval = 14.0
     Generated using "atomic" code by A. Dal Corso  v.5.0.99 svn rev. 10869
     Shape of augmentation charge: PSQ
     Using radial grid of 1281 points,  6 beta functions with: 
                l(1) =   0
                l(2) =   0
                l(3) =   1
                l(4) =   1
                l(5) =   2
                l(6) =   2
     Q(r) pseudized with 0 coefficients 


     atomic species   valence    mass     pseudopotential
        Cs             9.00   132.90545     Cs( 1.00)
        I              7.00   126.90447     I ( 1.00)
        Pb            14.00   207.20000     Pb( 1.00)

     48 Sym. Ops., with inversion, found


                                    s                        frac. trans.

      isym =  1     identity                                     

 cryst.   s( 1) = (     1          0          0      )
                  (     0          1          0      )
                  (     0          0          1      )

 cart.    s( 1) = (  1.0000000  0.0000000  0.0000000 )
                  (  0.0000000  1.0000000  0.0000000 )
                  (  0.0000000  0.0000000  1.0000000 )


      isym =  2     180 deg rotation - cart. axis [0,0,1]        

 cryst.   s( 2) = (    -1          0          0      )
                  (     0         -1          0      )
                  (     0          0          1      )

 cart.    s( 2) = ( -1.0000000  0.0000000  0.0000000 )
                  (  0.0000000 -1.0000000  0.0000000 )
                  (  0.0000000  0.0000000  1.0000000 )


      isym =  3     180 deg rotation - cart. axis [0,1,0]        

 cryst.   s( 3) = (    -1          0          0      )
                  (     0          1          0      )
                  (     0          0         -1      )

 cart.    s( 3) = ( -1.0000000  0.0000000  0.0000000 )
                  (  0.0000000  1.0000000  0.0000000 )
                  (  0.0000000  0.0000000 -1.0000000 )


      isym =  4     180 deg rotation - cart. axis [1,0,0]        

 cryst.   s( 4) = (     1          0          0      )
                  (     0         -1          0      )
                  (     0          0         -1      )

 cart.    s( 4) = (  1.0000000  0.0000000  0.0000000 )
                  (  0.0000000 -1.0000000  0.0000000 )
                  (  0.0000000  0.0000000 -1.0000000 )


      isym =  5     180 deg rotation - cart. axis [1,1,0]        

 cryst.   s( 5) = (     0          1          0      )
                  (     1          0          0      )
                  (     0          0         -1      )

 cart.    s( 5) = (  0.0000000  1.0000000  0.0000000 )
                  (  1.0000000  0.0000000  0.0000000 )
                  (  0.0000000  0.0000000 -1.0000000 )


      isym =  6     180 deg rotation - cart. axis [1,-1,0]       

 cryst.   s( 6) = (     0         -1          0      )
                  (    -1          0          0      )
                  (     0          0         -1      )

 cart.    s( 6) = (  0.0000000 -1.0000000  0.0000000 )
                  ( -1.0000000  0.0000000  0.0000000 )
                  (  0.0000000  0.0000000 -1.0000000 )


      isym =  7      90 deg rotation - cart. axis [0,0,-1]       

 cryst.   s( 7) = (     0         -1          0      )
                  (     1          0          0      )
                  (     0          0          1      )

 cart.    s( 7) = (  0.0000000  1.0000000  0.0000000 )
                  ( -1.0000000  0.0000000  0.0000000 )
                  (  0.0000000  0.0000000  1.0000000 )


      isym =  8      90 deg rotation - cart. axis [0,0,1]        

 cryst.   s( 8) = (     0          1          0      )
                  (    -1          0          0      )
                  (     0          0          1      )

 cart.    s( 8) = (  0.0000000 -1.0000000  0.0000000 )
                  (  1.0000000  0.0000000  0.0000000 )
                  (  0.0000000  0.0000000  1.0000000 )


      isym =  9     180 deg rotation - cart. axis [1,0,1]        

 cryst.   s( 9) = (     0          0          1      )
                  (     0         -1          0      )
                  (     1          0          0      )

 cart.    s( 9) = (  0.0000000  0.0000000  1.0000000 )
                  (  0.0000000 -1.0000000  0.0000000 )
                  (  1.0000000  0.0000000  0.0000000 )


      isym = 10     180 deg rotation - cart. axis [-1,0,1]       

 cryst.   s(10) = (     0          0         -1      )
                  (     0         -1          0      )
                  (    -1          0          0      )

 cart.    s(10) = (  0.0000000  0.0000000 -1.0000000 )
                  (  0.0000000 -1.0000000  0.0000000 )
                  ( -1.0000000  0.0000000  0.0000000 )


      isym = 11      90 deg rotation - cart. axis [0,1,0]        

 cryst.   s(11) = (     0          0         -1      )
                  (     0          1          0      )
                  (     1          0          0      )

 cart.    s(11) = (  0.0000000  0.0000000  1.0000000 )
                  (  0.0000000  1.0000000  0.0000000 )
                  ( -1.0000000  0.0000000  0.0000000 )


      isym = 12      90 deg rotation - cart. axis [0,-1,0]       

 cryst.   s(12) = (     0          0          1      )
                  (     0          1          0      )
                  (    -1          0          0      )

 cart.    s(12) = (  0.0000000  0.0000000 -1.0000000 )
                  (  0.0000000  1.0000000  0.0000000 )
                  (  1.0000000  0.0000000  0.0000000 )


      isym = 13     180 deg rotation - cart. axis [0,1,1]        

 cryst.   s(13) = (    -1          0          0      )
                  (     0          0          1      )
                  (     0          1          0      )

 cart.    s(13) = ( -1.0000000  0.0000000  0.0000000 )
                  (  0.0000000  0.0000000  1.0000000 )
                  (  0.0000000  1.0000000  0.0000000 )


      isym = 14     180 deg rotation - cart. axis [0,1,-1]       

 cryst.   s(14) = (    -1          0          0      )
                  (     0          0         -1      )
                  (     0         -1          0      )

 cart.    s(14) = ( -1.0000000  0.0000000  0.0000000 )
                  (  0.0000000  0.0000000 -1.0000000 )
                  (  0.0000000 -1.0000000  0.0000000 )


      isym = 15      90 deg rotation - cart. axis [-1,0,0]       

 cryst.   s(15) = (     1          0          0      )
                  (     0          0         -1      )
                  (     0          1          0      )

 cart.    s(15) = (  1.0000000  0.0000000  0.0000000 )
                  (  0.0000000  0.0000000  1.0000000 )
                  (  0.0000000 -1.0000000  0.0000000 )


      isym = 16      90 deg rotation - cart. axis [1,0,0]        

 cryst.   s(16) = (     1          0          0      )
                  (     0          0          1      )
                  (     0         -1          0      )

 cart.    s(16) = (  1.0000000  0.0000000  0.0000000 )
                  (  0.0000000  0.0000000 -1.0000000 )
                  (  0.0000000  1.0000000  0.0000000 )


      isym = 17     120 deg rotation - cart. axis [-1,-1,-1]     

 cryst.   s(17) = (     0          0          1      )
                  (     1          0          0      )
                  (     0          1          0      )

 cart.    s(17) = (  0.0000000  1.0000000  0.0000000 )
                  (  0.0000000  0.0000000  1.0000000 )
                  (  1.0000000  0.0000000  0.0000000 )


      isym = 18     120 deg rotation - cart. axis [-1,1,1]       

 cryst.   s(18) = (     0          0         -1      )
                  (    -1          0          0      )
                  (     0          1          0      )

 cart.    s(18) = (  0.0000000 -1.0000000  0.0000000 )
                  (  0.0000000  0.0000000  1.0000000 )
                  ( -1.0000000  0.0000000  0.0000000 )


      isym = 19     120 deg rotation - cart. axis [1,1,-1]       

 cryst.   s(19) = (     0          0         -1      )
                  (     1          0          0      )
                  (     0         -1          0      )

 cart.    s(19) = (  0.0000000  1.0000000  0.0000000 )
                  (  0.0000000  0.0000000 -1.0000000 )
                  ( -1.0000000  0.0000000  0.0000000 )


      isym = 20     120 deg rotation - cart. axis [1,-1,1]       

 cryst.   s(20) = (     0          0          1      )
                  (    -1          0          0      )
                  (     0         -1          0      )

 cart.    s(20) = (  0.0000000 -1.0000000  0.0000000 )
                  (  0.0000000  0.0000000 -1.0000000 )
                  (  1.0000000  0.0000000  0.0000000 )


      isym = 21     120 deg rotation - cart. axis [1,1,1]        

 cryst.   s(21) = (     0          1          0      )
                  (     0          0          1      )
                  (     1          0          0      )

 cart.    s(21) = (  0.0000000  0.0000000  1.0000000 )
                  (  1.0000000  0.0000000  0.0000000 )
                  (  0.0000000  1.0000000  0.0000000 )


      isym = 22     120 deg rotation - cart. axis [-1,1,-1]      

 cryst.   s(22) = (     0         -1          0      )
                  (     0          0         -1      )
                  (     1          0          0      )

 cart.    s(22) = (  0.0000000  0.0000000  1.0000000 )
                  ( -1.0000000  0.0000000  0.0000000 )
                  (  0.0000000 -1.0000000  0.0000000 )


      isym = 23     120 deg rotation - cart. axis [1,-1,-1]      

 cryst.   s(23) = (     0         -1          0      )
                  (     0          0          1      )
                  (    -1          0          0      )

 cart.    s(23) = (  0.0000000  0.0000000 -1.0000000 )
                  ( -1.0000000  0.0000000  0.0000000 )
                  (  0.0000000  1.0000000  0.0000000 )


      isym = 24     120 deg rotation - cart. axis [-1,-1,1]      

 cryst.   s(24) = (     0          1          0      )
                  (     0          0         -1      )
                  (    -1          0          0      )

 cart.    s(24) = (  0.0000000  0.0000000 -1.0000000 )
                  (  1.0000000  0.0000000  0.0000000 )
                  (  0.0000000 -1.0000000  0.0000000 )


      isym = 25     inversion                                    

 cryst.   s(25) = (    -1          0          0      )
                  (     0         -1          0      )
                  (     0          0         -1      )

 cart.    s(25) = ( -1.0000000  0.0000000  0.0000000 )
                  (  0.0000000 -1.0000000  0.0000000 )
                  (  0.0000000  0.0000000 -1.0000000 )


      isym = 26     inv. 180 deg rotation - cart. axis [0,0,1]   

 cryst.   s(26) = (     1          0          0      )
                  (     0          1          0      )
                  (     0          0         -1      )

 cart.    s(26) = (  1.0000000  0.0000000  0.0000000 )
                  (  0.0000000  1.0000000  0.0000000 )
                  (  0.0000000  0.0000000 -1.0000000 )


      isym = 27     inv. 180 deg rotation - cart. axis [0,1,0]   

 cryst.   s(27) = (     1          0          0      )
                  (     0         -1          0      )
                  (     0          0          1      )

 cart.    s(27) = (  1.0000000  0.0000000  0.0000000 )
                  (  0.0000000 -1.0000000  0.0000000 )
                  (  0.0000000  0.0000000  1.0000000 )


      isym = 28     inv. 180 deg rotation - cart. axis [1,0,0]   

 cryst.   s(28) = (    -1          0          0      )
                  (     0          1          0      )
                  (     0          0          1      )

 cart.    s(28) = ( -1.0000000  0.0000000  0.0000000 )
                  (  0.0000000  1.0000000  0.0000000 )
                  (  0.0000000  0.0000000  1.0000000 )


      isym = 29     inv. 180 deg rotation - cart. axis [1,1,0]   

 cryst.   s(29) = (     0         -1          0      )
                  (    -1          0          0      )
                  (     0          0          1      )

 cart.    s(29) = (  0.0000000 -1.0000000  0.0000000 )
                  ( -1.0000000  0.0000000  0.0000000 )
                  (  0.0000000  0.0000000  1.0000000 )


      isym = 30     inv. 180 deg rotation - cart. axis [1,-1,0]  

 cryst.   s(30) = (     0          1          0      )
                  (     1          0          0      )
                  (     0          0          1      )

 cart.    s(30) = (  0.0000000  1.0000000  0.0000000 )
                  (  1.0000000  0.0000000  0.0000000 )
                  (  0.0000000  0.0000000  1.0000000 )


      isym = 31     inv.  90 deg rotation - cart. axis [0,0,-1]  

 cryst.   s(31) = (     0          1          0      )
                  (    -1          0          0      )
                  (     0          0         -1      )

 cart.    s(31) = (  0.0000000 -1.0000000  0.0000000 )
                  (  1.0000000  0.0000000  0.0000000 )
                  (  0.0000000  0.0000000 -1.0000000 )


      isym = 32     inv.  90 deg rotation - cart. axis [0,0,1]   

 cryst.   s(32) = (     0         -1          0      )
                  (     1          0          0      )
                  (     0          0         -1      )

 cart.    s(32) = (  0.0000000  1.0000000  0.0000000 )
                  ( -1.0000000  0.0000000  0.0000000 )
                  (  0.0000000  0.0000000 -1.0000000 )


      isym = 33     inv. 180 deg rotation - cart. axis [1,0,1]   

 cryst.   s(33) = (     0          0         -1      )
                  (     0          1          0      )
                  (    -1          0          0      )

 cart.    s(33) = (  0.0000000  0.0000000 -1.0000000 )
                  (  0.0000000  1.0000000  0.0000000 )
                  ( -1.0000000  0.0000000  0.0000000 )


      isym = 34     inv. 180 deg rotation - cart. axis [-1,0,1]  

 cryst.   s(34) = (     0          0          1      )
                  (     0          1          0      )
                  (     1          0          0      )

 cart.    s(34) = (  0.0000000  0.0000000  1.0000000 )
                  (  0.0000000  1.0000000  0.0000000 )
                  (  1.0000000  0.0000000  0.0000000 )


      isym = 35     inv.  90 deg rotation - cart. axis [0,1,0]   

 cryst.   s(35) = (     0          0          1      )
                  (     0         -1          0      )
                  (    -1          0          0      )

 cart.    s(35) = (  0.0000000  0.0000000 -1.0000000 )
                  (  0.0000000 -1.0000000  0.0000000 )
                  (  1.0000000  0.0000000  0.0000000 )


      isym = 36     inv.  90 deg rotation - cart. axis [0,-1,0]  

 cryst.   s(36) = (     0          0         -1      )
                  (     0         -1          0      )
                  (     1          0          0      )

 cart.    s(36) = (  0.0000000  0.0000000  1.0000000 )
                  (  0.0000000 -1.0000000  0.0000000 )
                  ( -1.0000000  0.0000000  0.0000000 )


      isym = 37     inv. 180 deg rotation - cart. axis [0,1,1]   

 cryst.   s(37) = (     1          0          0      )
                  (     0          0         -1      )
                  (     0         -1          0      )

 cart.    s(37) = (  1.0000000  0.0000000  0.0000000 )
                  (  0.0000000  0.0000000 -1.0000000 )
                  (  0.0000000 -1.0000000  0.0000000 )


      isym = 38     inv. 180 deg rotation - cart. axis [0,1,-1]  

 cryst.   s(38) = (     1          0          0      )
                  (     0          0          1      )
                  (     0          1          0      )

 cart.    s(38) = (  1.0000000  0.0000000  0.0000000 )
                  (  0.0000000  0.0000000  1.0000000 )
                  (  0.0000000  1.0000000  0.0000000 )


      isym = 39     inv.  90 deg rotation - cart. axis [-1,0,0]  

 cryst.   s(39) = (    -1          0          0      )
                  (     0          0          1      )
                  (     0         -1          0      )

 cart.    s(39) = ( -1.0000000  0.0000000  0.0000000 )
                  (  0.0000000  0.0000000 -1.0000000 )
                  (  0.0000000  1.0000000  0.0000000 )


      isym = 40     inv.  90 deg rotation - cart. axis [1,0,0]   

 cryst.   s(40) = (    -1          0          0      )
                  (     0          0         -1      )
                  (     0          1          0      )

 cart.    s(40) = ( -1.0000000  0.0000000  0.0000000 )
                  (  0.0000000  0.0000000  1.0000000 )
                  (  0.0000000 -1.0000000  0.0000000 )


      isym = 41     inv. 120 deg rotation - cart. axis [-1,-1,-1]

 cryst.   s(41) = (     0          0         -1      )
                  (    -1          0          0      )
                  (     0         -1          0      )

 cart.    s(41) = (  0.0000000 -1.0000000  0.0000000 )
                  (  0.0000000  0.0000000 -1.0000000 )
                  ( -1.0000000  0.0000000  0.0000000 )


      isym = 42     inv. 120 deg rotation - cart. axis [-1,1,1]  

 cryst.   s(42) = (     0          0          1      )
                  (     1          0          0      )
                  (     0         -1          0      )

 cart.    s(42) = (  0.0000000  1.0000000  0.0000000 )
                  (  0.0000000  0.0000000 -1.0000000 )
                  (  1.0000000  0.0000000  0.0000000 )


      isym = 43     inv. 120 deg rotation - cart. axis [1,1,-1]  

 cryst.   s(43) = (     0          0          1      )
                  (    -1          0          0      )
                  (     0          1          0      )

 cart.    s(43) = (  0.0000000 -1.0000000  0.0000000 )
                  (  0.0000000  0.0000000  1.0000000 )
                  (  1.0000000  0.0000000  0.0000000 )


      isym = 44     inv. 120 deg rotation - cart. axis [1,-1,1]  

 cryst.   s(44) = (     0          0         -1      )
                  (     1          0          0      )
                  (     0          1          0      )

 cart.    s(44) = (  0.0000000  1.0000000  0.0000000 )
                  (  0.0000000  0.0000000  1.0000000 )
                  ( -1.0000000  0.0000000  0.0000000 )


      isym = 45     inv. 120 deg rotation - cart. axis [1,1,1]   

 cryst.   s(45) = (     0         -1          0      )
                  (     0          0         -1      )
                  (    -1          0          0      )

 cart.    s(45) = (  0.0000000  0.0000000 -1.0000000 )
                  ( -1.0000000  0.0000000  0.0000000 )
                  (  0.0000000 -1.0000000  0.0000000 )


      isym = 46     inv. 120 deg rotation - cart. axis [-1,1,-1] 

 cryst.   s(46) = (     0          1          0      )
                  (     0          0          1      )
                  (    -1          0          0      )

 cart.    s(46) = (  0.0000000  0.0000000 -1.0000000 )
                  (  1.0000000  0.0000000  0.0000000 )
                  (  0.0000000  1.0000000  0.0000000 )


      isym = 47     inv. 120 deg rotation - cart. axis [1,-1,-1] 

 cryst.   s(47) = (     0          1          0      )
                  (     0          0         -1      )
                  (     1          0          0      )

 cart.    s(47) = (  0.0000000  0.0000000  1.0000000 )
                  (  1.0000000  0.0000000  0.0000000 )
                  (  0.0000000 -1.0000000  0.0000000 )


      isym = 48     inv. 120 deg rotation - cart. axis [-1,-1,1] 

 cryst.   s(48) = (     0         -1          0      )
                  (     0          0          1      )
                  (     1          0          0      )

 cart.    s(48) = (  0.0000000  0.0000000  1.0000000 )
                  ( -1.0000000  0.0000000  0.0000000 )
                  (  0.0000000  1.0000000  0.0000000 )


   Cartesian axes

     site n.     atom                  positions (alat units)
         1           Cs  tau(   1) = (   0.2500001   0.2500001   0.2500001  )
         2           Cs  tau(   2) = (   0.2500001   0.2500001   0.7499999  )
         3           Cs  tau(   3) = (   0.2500001   0.7499999   0.2500001  )
         4           Cs  tau(   4) = (   0.2500001   0.7499999   0.7499999  )
         5           Cs  tau(   5) = (   0.7499999   0.2500001   0.2500001  )
         6           Cs  tau(   6) = (   0.7499999   0.2500001   0.7499999  )
         7           Cs  tau(   7) = (   0.7499999   0.7499999   0.2500001  )
         8           Cs  tau(   8) = (   0.7499999   0.7499999   0.7499999  )
         9           Pb  tau(   9) = (   0.0000000   0.0000000   0.0000000  )
        10           Pb  tau(  10) = (   0.0000000   0.0000000   0.5000000  )
        11           Pb  tau(  11) = (   0.0000000   0.5000000   0.0000000  )
        12           Pb  tau(  12) = (   0.0000000   0.5000000   0.5000000  )
        13           Pb  tau(  13) = (   0.5000000   0.0000000   0.0000000  )
        14           Pb  tau(  14) = (   0.5000000   0.0000000   0.5000000  )
        15           Pb  tau(  15) = (   0.5000000   0.5000000   0.0000000  )
        16           Pb  tau(  16) = (   0.5000000   0.5000000   0.5000000  )
        17           I   tau(  17) = (   0.0000000   0.0000000   0.2500016  )
        18           I   tau(  18) = (   0.0000000   0.0000000   0.7499984  )
        19           I   tau(  19) = (   0.0000000   0.5000000   0.2500017  )
        20           I   tau(  20) = (   0.0000000   0.5000000   0.7499983  )
        21           I   tau(  21) = (   0.5000000   0.0000000   0.2500017  )
        22           I   tau(  22) = (   0.5000000   0.0000000   0.7499983  )
        23           I   tau(  23) = (   0.5000000   0.5000000   0.2500017  )
        24           I   tau(  24) = (   0.5000000   0.5000000   0.7499983  )
        25           I   tau(  25) = (   0.0000000   0.2500016   0.0000000  )
        26           I   tau(  26) = (   0.0000000   0.2500017   0.5000000  )
        27           I   tau(  27) = (   0.0000000   0.7499984   0.0000000  )
        28           I   tau(  28) = (   0.0000000   0.7499983   0.5000000  )
        29           I   tau(  29) = (   0.5000000   0.2500017   0.0000000  )
        30           I   tau(  30) = (   0.5000000   0.2500017   0.5000000  )
        31           I   tau(  31) = (   0.5000000   0.7499983   0.0000000  )
        32           I   tau(  32) = (   0.5000000   0.7499983   0.5000000  )
        33           I   tau(  33) = (   0.2500016   0.0000000   0.0000000  )
        34           I   tau(  34) = (   0.2500017   0.0000000   0.5000000  )
        35           I   tau(  35) = (   0.2500017   0.5000000   0.0000000  )
        36           I   tau(  36) = (   0.2500017   0.5000000   0.5000000  )
        37           I   tau(  37) = (   0.7499984   0.0000000   0.0000000  )
        38           I   tau(  38) = (   0.7499983   0.0000000   0.5000000  )
        39           I   tau(  39) = (   0.7499983   0.5000000   0.0000000  )
        40           I   tau(  40) = (   0.7499983   0.5000000   0.5000000  )

   Crystallographic axes

     site n.     atom                  positions (cryst. coord.)
         1           Cs  tau(   1) = (  0.2500001  0.2500001  0.2500001  )
         2           Cs  tau(   2) = (  0.2500001  0.2500001  0.7499999  )
         3           Cs  tau(   3) = (  0.2500001  0.7499999  0.2500001  )
         4           Cs  tau(   4) = (  0.2500001  0.7499999  0.7499999  )
         5           Cs  tau(   5) = (  0.7499999  0.2500001  0.2500001  )
         6           Cs  tau(   6) = (  0.7499999  0.2500001  0.7499999  )
         7           Cs  tau(   7) = (  0.7499999  0.7499999  0.2500001  )
         8           Cs  tau(   8) = (  0.7499999  0.7499999  0.7499999  )
         9           Pb  tau(   9) = (  0.0000000  0.0000000  0.0000000  )
        10           Pb  tau(  10) = (  0.0000000  0.0000000  0.5000000  )
        11           Pb  tau(  11) = (  0.0000000  0.5000000  0.0000000  )
        12           Pb  tau(  12) = (  0.0000000  0.5000000  0.5000000  )
        13           Pb  tau(  13) = (  0.5000000  0.0000000  0.0000000  )
        14           Pb  tau(  14) = (  0.5000000  0.0000000  0.5000000  )
        15           Pb  tau(  15) = (  0.5000000  0.5000000  0.0000000  )
        16           Pb  tau(  16) = (  0.5000000  0.5000000  0.5000000  )
        17           I   tau(  17) = (  0.0000000  0.0000000  0.2500016  )
        18           I   tau(  18) = (  0.0000000  0.0000000  0.7499984  )
        19           I   tau(  19) = (  0.0000000  0.5000000  0.2500017  )
        20           I   tau(  20) = (  0.0000000  0.5000000  0.7499983  )
        21           I   tau(  21) = (  0.5000000  0.0000000  0.2500017  )
        22           I   tau(  22) = (  0.5000000  0.0000000  0.7499983  )
        23           I   tau(  23) = (  0.5000000  0.5000000  0.2500017  )
        24           I   tau(  24) = (  0.5000000  0.5000000  0.7499983  )
        25           I   tau(  25) = (  0.0000000  0.2500016  0.0000000  )
        26           I   tau(  26) = (  0.0000000  0.2500017  0.5000000  )
        27           I   tau(  27) = (  0.0000000  0.7499984  0.0000000  )
        28           I   tau(  28) = (  0.0000000  0.7499983  0.5000000  )
        29           I   tau(  29) = (  0.5000000  0.2500017  0.0000000  )
        30           I   tau(  30) = (  0.5000000  0.2500017  0.5000000  )
        31           I   tau(  31) = (  0.5000000  0.7499983  0.0000000  )
        32           I   tau(  32) = (  0.5000000  0.7499983  0.5000000  )
        33           I   tau(  33) = (  0.2500016  0.0000000  0.0000000  )
        34           I   tau(  34) = (  0.2500017  0.0000000  0.5000000  )
        35           I   tau(  35) = (  0.2500017  0.5000000  0.0000000  )
        36           I   tau(  36) = (  0.2500017  0.5000000  0.5000000  )
        37           I   tau(  37) = (  0.7499984  0.0000000  0.0000000  )
        38           I   tau(  38) = (  0.7499983  0.0000000  0.5000000  )
        39           I   tau(  39) = (  0.7499983  0.5000000  0.0000000  )
        40           I   tau(  40) = (  0.7499983  0.5000000  0.5000000  )

     number of k points=    56  Marzari-Vanderbilt smearing, width (Ry)=  0.0147
                       cart. coord. in units 2pi/alat
        k(    1) = (   0.0000000   0.0000000   0.0000000), wk =   0.0020000
        k(    2) = (   0.0000000   0.0000000   0.1000000), wk =   0.0120000
        k(    3) = (   0.0000000   0.0000000   0.2000000), wk =   0.0120000
        k(    4) = (   0.0000000   0.0000000   0.3000000), wk =   0.0120000
        k(    5) = (   0.0000000   0.0000000   0.4000000), wk =   0.0120000
        k(    6) = (   0.0000000   0.0000000  -0.5000000), wk =   0.0060000
        k(    7) = (   0.0000000   0.1000000   0.1000000), wk =   0.0240000
        k(    8) = (   0.0000000   0.1000000   0.2000000), wk =   0.0480000
        k(    9) = (   0.0000000   0.1000000   0.3000000), wk =   0.0480000
        k(   10) = (   0.0000000   0.1000000   0.4000000), wk =   0.0480000
        k(   11) = (   0.0000000   0.1000000  -0.5000000), wk =   0.0240000
        k(   12) = (   0.0000000   0.2000000   0.2000000), wk =   0.0240000
        k(   13) = (   0.0000000   0.2000000   0.3000000), wk =   0.0480000
        k(   14) = (   0.0000000   0.2000000   0.4000000), wk =   0.0480000
        k(   15) = (   0.0000000   0.2000000  -0.5000000), wk =   0.0240000
        k(   16) = (   0.0000000   0.3000000   0.3000000), wk =   0.0240000
        k(   17) = (   0.0000000   0.3000000   0.4000000), wk =   0.0480000
        k(   18) = (   0.0000000   0.3000000  -0.5000000), wk =   0.0240000
        k(   19) = (   0.0000000   0.4000000   0.4000000), wk =   0.0240000
        k(   20) = (   0.0000000   0.4000000  -0.5000000), wk =   0.0240000
        k(   21) = (   0.0000000  -0.5000000  -0.5000000), wk =   0.0060000
        k(   22) = (   0.1000000   0.1000000   0.1000000), wk =   0.0160000
        k(   23) = (   0.1000000   0.1000000   0.2000000), wk =   0.0480000
        k(   24) = (   0.1000000   0.1000000   0.3000000), wk =   0.0480000
        k(   25) = (   0.1000000   0.1000000   0.4000000), wk =   0.0480000
        k(   26) = (   0.1000000   0.1000000  -0.5000000), wk =   0.0240000
        k(   27) = (   0.1000000   0.2000000   0.2000000), wk =   0.0480000
        k(   28) = (   0.1000000   0.2000000   0.3000000), wk =   0.0960000
        k(   29) = (   0.1000000   0.2000000   0.4000000), wk =   0.0960000
        k(   30) = (   0.1000000   0.2000000  -0.5000000), wk =   0.0480000
        k(   31) = (   0.1000000   0.3000000   0.3000000), wk =   0.0480000
        k(   32) = (   0.1000000   0.3000000   0.4000000), wk =   0.0960000
        k(   33) = (   0.1000000   0.3000000  -0.5000000), wk =   0.0480000
        k(   34) = (   0.1000000   0.4000000   0.4000000), wk =   0.0480000
        k(   35) = (   0.1000000   0.4000000  -0.5000000), wk =   0.0480000
        k(   36) = (   0.1000000  -0.5000000  -0.5000000), wk =   0.0120000
        k(   37) = (   0.2000000   0.2000000   0.2000000), wk =   0.0160000
        k(   38) = (   0.2000000   0.2000000   0.3000000), wk =   0.0480000
        k(   39) = (   0.2000000   0.2000000   0.4000000), wk =   0.0480000
        k(   40) = (   0.2000000   0.2000000  -0.5000000), wk =   0.0240000
        k(   41) = (   0.2000000   0.3000000   0.3000000), wk =   0.0480000
        k(   42) = (   0.2000000   0.3000000   0.4000000), wk =   0.0960000
        k(   43) = (   0.2000000   0.3000000  -0.5000000), wk =   0.0480000
        k(   44) = (   0.2000000   0.4000000   0.4000000), wk =   0.0480000
        k(   45) = (   0.2000000   0.4000000  -0.5000000), wk =   0.0480000
        k(   46) = (   0.2000000  -0.5000000  -0.5000000), wk =   0.0120000
        k(   47) = (   0.3000000   0.3000000   0.3000000), wk =   0.0160000
        k(   48) = (   0.3000000   0.3000000   0.4000000), wk =   0.0480000
        k(   49) = (   0.3000000   0.3000000  -0.5000000), wk =   0.0240000
        k(   50) = (   0.3000000   0.4000000   0.4000000), wk =   0.0480000
        k(   51) = (   0.3000000   0.4000000  -0.5000000), wk =   0.0480000
        k(   52) = (   0.3000000  -0.5000000  -0.5000000), wk =   0.0120000
        k(   53) = (   0.4000000   0.4000000   0.4000000), wk =   0.0160000
        k(   54) = (   0.4000000   0.4000000  -0.5000000), wk =   0.0240000
        k(   55) = (   0.4000000  -0.5000000  -0.5000000), wk =   0.0120000
        k(   56) = (  -0.5000000  -0.5000000  -0.5000000), wk =   0.0020000

                       cryst. coord.
        k(    1) = (   0.0000000   0.0000000   0.0000000), wk =   0.0020000
        k(    2) = (   0.0000000   0.0000000   0.1000000), wk =   0.0120000
        k(    3) = (   0.0000000   0.0000000   0.2000000), wk =   0.0120000
        k(    4) = (   0.0000000   0.0000000   0.3000000), wk =   0.0120000
        k(    5) = (   0.0000000   0.0000000   0.4000000), wk =   0.0120000
        k(    6) = (   0.0000000   0.0000000  -0.5000000), wk =   0.0060000
        k(    7) = (   0.0000000   0.1000000   0.1000000), wk =   0.0240000
        k(    8) = (   0.0000000   0.1000000   0.2000000), wk =   0.0480000
        k(    9) = (   0.0000000   0.1000000   0.3000000), wk =   0.0480000
        k(   10) = (   0.0000000   0.1000000   0.4000000), wk =   0.0480000
        k(   11) = (   0.0000000   0.1000000  -0.5000000), wk =   0.0240000
        k(   12) = (   0.0000000   0.2000000   0.2000000), wk =   0.0240000
        k(   13) = (   0.0000000   0.2000000   0.3000000), wk =   0.0480000
        k(   14) = (   0.0000000   0.2000000   0.4000000), wk =   0.0480000
        k(   15) = (   0.0000000   0.2000000  -0.5000000), wk =   0.0240000
        k(   16) = (   0.0000000   0.3000000   0.3000000), wk =   0.0240000
        k(   17) = (   0.0000000   0.3000000   0.4000000), wk =   0.0480000
        k(   18) = (   0.0000000   0.3000000  -0.5000000), wk =   0.0240000
        k(   19) = (   0.0000000   0.4000000   0.4000000), wk =   0.0240000
        k(   20) = (   0.0000000   0.4000000  -0.5000000), wk =   0.0240000
        k(   21) = (   0.0000000  -0.5000000  -0.5000000), wk =   0.0060000
        k(   22) = (   0.1000000   0.1000000   0.1000000), wk =   0.0160000
        k(   23) = (   0.1000000   0.1000000   0.2000000), wk =   0.0480000
        k(   24) = (   0.1000000   0.1000000   0.3000000), wk =   0.0480000
        k(   25) = (   0.1000000   0.1000000   0.4000000), wk =   0.0480000
        k(   26) = (   0.1000000   0.1000000  -0.5000000), wk =   0.0240000
        k(   27) = (   0.1000000   0.2000000   0.2000000), wk =   0.0480000
        k(   28) = (   0.1000000   0.2000000   0.3000000), wk =   0.0960000
        k(   29) = (   0.1000000   0.2000000   0.4000000), wk =   0.0960000
        k(   30) = (   0.1000000   0.2000000  -0.5000000), wk =   0.0480000
        k(   31) = (   0.1000000   0.3000000   0.3000000), wk =   0.0480000
        k(   32) = (   0.1000000   0.3000000   0.4000000), wk =   0.0960000
        k(   33) = (   0.1000000   0.3000000  -0.5000000), wk =   0.0480000
        k(   34) = (   0.1000000   0.4000000   0.4000000), wk =   0.0480000
        k(   35) = (   0.1000000   0.4000000  -0.5000000), wk =   0.0480000
        k(   36) = (   0.1000000  -0.5000000  -0.5000000), wk =   0.0120000
        k(   37) = (   0.2000000   0.2000000   0.2000000), wk =   0.0160000
        k(   38) = (   0.2000000   0.2000000   0.3000000), wk =   0.0480000
        k(   39) = (   0.2000000   0.2000000   0.4000000), wk =   0.0480000
        k(   40) = (   0.2000000   0.2000000  -0.5000000), wk =   0.0240000
        k(   41) = (   0.2000000   0.3000000   0.3000000), wk =   0.0480000
        k(   42) = (   0.2000000   0.3000000   0.4000000), wk =   0.0960000
        k(   43) = (   0.2000000   0.3000000  -0.5000000), wk =   0.0480000
        k(   44) = (   0.2000000   0.4000000   0.4000000), wk =   0.0480000
        k(   45) = (   0.2000000   0.4000000  -0.5000000), wk =   0.0480000
        k(   46) = (   0.2000000  -0.5000000  -0.5000000), wk =   0.0120000
        k(   47) = (   0.3000000   0.3000000   0.3000000), wk =   0.0160000
        k(   48) = (   0.3000000   0.3000000   0.4000000), wk =   0.0480000
        k(   49) = (   0.3000000   0.3000000  -0.5000000), wk =   0.0240000
        k(   50) = (   0.3000000   0.4000000   0.4000000), wk =   0.0480000
        k(   51) = (   0.3000000   0.4000000  -0.5000000), wk =   0.0480000
        k(   52) = (   0.3000000  -0.5000000  -0.5000000), wk =   0.0120000
        k(   53) = (   0.4000000   0.4000000   0.4000000), wk =   0.0160000
        k(   54) = (   0.4000000   0.4000000  -0.5000000), wk =   0.0240000
        k(   55) = (   0.4000000  -0.5000000  -0.5000000), wk =   0.0120000
        k(   56) = (  -0.5000000  -0.5000000  -0.5000000), wk =   0.0020000

     Dense  grid:   479769 G-vectors     FFT dimensions: ( 100, 100, 100)

     Dynamical RAM for                 wfc:      48.24 MB

     Dynamical RAM for     wfc (w. buffer):    2749.83 MB

     Dynamical RAM for           str. fact:       5.49 MB

     Dynamical RAM for           local pot:       0.00 MB

     Dynamical RAM for          nlocal pot:     109.75 MB

     Dynamical RAM for                qrad:       3.05 MB

     Dynamical RAM for          rho,v,vnew:      11.21 MB

     Dynamical RAM for               rhoin:       3.74 MB

     Dynamical RAM for            rho*nmix:      29.28 MB

     Dynamical RAM for           G-vectors:       7.78 MB

     Dynamical RAM for          h,s,v(r/c):       2.04 MB

     Dynamical RAM for          <psi|beta>:       1.55 MB

     Dynamical RAM for                 psi:      96.49 MB

     Dynamical RAM for                hpsi:      96.49 MB

     Dynamical RAM for                spsi:      96.49 MB

     Dynamical RAM for      wfcinit/wfcrot:     126.07 MB

     Dynamical RAM for           addusdens:     384.34 MB

     Dynamical RAM for          addusforce:     469.53 MB

     Dynamical RAM for         addusstress:     367.86 MB

     Estimated static dynamical RAM per process >       2.87 GB

     Estimated max dynamical RAM per process >       3.33 GB

     Estimated total dynamical RAM >      13.31 GB

     Check: negative core charge=   -0.000001

     Initial potential from superposition of free atoms

     starting charge  351.66429, renormalised to  352.00000
     Starting wfcs are  272 randomized atomic wfcs
     Checking if some PAW data can be deallocated... 
       PAW data deallocated on    1 nodes for type:  2
       PAW data deallocated on    2 nodes for type:  3

     total cpu time spent up to now is     2714.9 secs

     Self-consistent Calculation

     iteration #  1     ecut=    40.00 Ry     beta= 0.40
     Davidson diagonalization with overlap
     ethr =  1.00E-02,  avg # of iterations =  2.9

     Threshold (ethr) on eigenvalues was too large:
     Diagonalizing with lowered threshold

     Davidson diagonalization with overlap
     ethr =  2.56E-04,  avg # of iterations =  8.6

     total cpu time spent up to now is    16400.6 secs

     total energy              =  -16565.69442751 Ry
     estimated scf accuracy    <       0.82191713 Ry

     iteration #  2     ecut=    40.00 Ry     beta= 0.40
     Davidson diagonalization with overlap
     ethr =  2.33E-04,  avg # of iterations =  2.8

     total cpu time spent up to now is    23846.6 secs

     total energy              =  -16565.82437488 Ry
     estimated scf accuracy    <       0.05285761 Ry

     iteration #  3     ecut=    40.00 Ry     beta= 0.40
     Davidson diagonalization with overlap
     c_bands:  2 eigenvalues not converged
     c_bands:  3 eigenvalues not converged
     c_bands:  4 eigenvalues not converged
     c_bands:  1 eigenvalues not converged
     c_bands:  3 eigenvalues not converged
     c_bands:  1 eigenvalues not converged
     ethr =  1.50E-05,  avg # of iterations = 12.6

     total cpu time spent up to now is    34965.5 secs

     total energy              =  -16565.85304550 Ry
     estimated scf accuracy    <       0.01602584 Ry

     iteration #  4     ecut=    40.00 Ry     beta= 0.40
     Davidson diagonalization with overlap
     c_bands:  1 eigenvalues not converged
     c_bands:  1 eigenvalues not converged
     c_bands:  2 eigenvalues not converged
     c_bands:  4 eigenvalues not converged
     ethr =  4.55E-06,  avg # of iterations =  8.5

     total cpu time spent up to now is    42093.2 secs

     total energy              =  -16565.85491800 Ry
     estimated scf accuracy    <       0.00076761 Ry

     iteration #  5     ecut=    40.00 Ry     beta= 0.40
     Davidson diagonalization with overlap
     c_bands:  1 eigenvalues not converged
     c_bands:  1 eigenvalues not converged
     ethr =  2.18E-07,  avg # of iterations =  7.3

     total cpu time spent up to now is    53339.3 secs

     total energy              =  -16565.85544339 Ry
     estimated scf accuracy    <       0.00035584 Ry

     iteration #  6     ecut=    40.00 Ry     beta= 0.40
     Davidson diagonalization with overlap
     ethr =  1.01E-07,  avg # of iterations =  1.6

     total cpu time spent up to now is    58887.5 secs

     total energy              =  -16565.85541319 Ry
     estimated scf accuracy    <       0.00018374 Ry

     iteration #  7     ecut=    40.00 Ry     beta= 0.40
     Davidson diagonalization with overlap
     ethr =  5.22E-08,  avg # of iterations =  4.0

     total cpu time spent up to now is    66307.1 secs

     total energy              =  -16565.85545544 Ry
     estimated scf accuracy    <       0.00004876 Ry

     iteration #  8     ecut=    40.00 Ry     beta= 0.40
     Davidson diagonalization with overlap
     ethr =  1.39E-08,  avg # of iterations =  3.8

     total cpu time spent up to now is    72222.4 secs

     total energy              =  -16565.85545235 Ry
     estimated scf accuracy    <       0.00003017 Ry

     iteration #  9     ecut=    40.00 Ry     beta= 0.40
     Davidson diagonalization with overlap
     ethr =  8.57E-09,  avg # of iterations =  2.9

     total cpu time spent up to now is    78436.1 secs

     total energy              =  -16565.85545436 Ry
     estimated scf accuracy    <       0.00000281 Ry

     iteration # 10     ecut=    40.00 Ry     beta= 0.40
     Davidson diagonalization with overlap
     ethr =  7.97E-10,  avg # of iterations =  5.1

     total cpu time spent up to now is    88224.7 secs

     total energy              =  -16565.85545739 Ry
     estimated scf accuracy    <       0.00000369 Ry

     iteration # 11     ecut=    40.00 Ry     beta= 0.40
     Davidson diagonalization with overlap
     ethr =  7.97E-10,  avg # of iterations =  1.0

     total cpu time spent up to now is    93507.6 secs

     total energy              =  -16565.85545728 Ry
     estimated scf accuracy    <       0.00000354 Ry

     iteration # 12     ecut=    40.00 Ry     beta= 0.40
     Davidson diagonalization with overlap
     ethr =  7.97E-10,  avg # of iterations =  1.0

     total cpu time spent up to now is    98864.5 secs

     total energy              =  -16565.85545686 Ry
     estimated scf accuracy    <       0.00000315 Ry

     iteration # 13     ecut=    40.00 Ry     beta= 0.40
     Davidson diagonalization with overlap
     ethr =  7.97E-10,  avg # of iterations =  1.1

     total cpu time spent up to now is   104098.5 secs

     total energy              =  -16565.85545719 Ry
     estimated scf accuracy    <       0.00000179 Ry

     iteration # 14     ecut=    40.00 Ry     beta= 0.40
     Davidson diagonalization with overlap
     ethr =  5.10E-10,  avg # of iterations =  2.0

     total cpu time spent up to now is   109981.5 secs

     total energy              =  -16565.85545726 Ry
     estimated scf accuracy    <       0.00000298 Ry

     iteration # 15     ecut=    40.00 Ry     beta= 0.40
     Davidson diagonalization with overlap
     ethr =  5.10E-10,  avg # of iterations =  1.0

     total cpu time spent up to now is   115224.6 secs

     total energy              =  -16565.85545736 Ry
     estimated scf accuracy    <       0.00000288 Ry

     iteration # 16     ecut=    40.00 Ry     beta= 0.40
     Davidson diagonalization with overlap
     ethr =  5.10E-10,  avg # of iterations =  1.0

     total cpu time spent up to now is   120404.9 secs

     total energy              =  -16565.85545710 Ry
     estimated scf accuracy    <       0.00000310 Ry

     iteration # 17     ecut=    40.00 Ry     beta= 0.40
     Davidson diagonalization with overlap
     ethr =  5.10E-10,  avg # of iterations =  1.0

     total cpu time spent up to now is   125693.4 secs

     total energy              =  -16565.85545651 Ry
     estimated scf accuracy    <       0.00000198 Ry

     iteration # 18     ecut=    40.00 Ry     beta= 0.40
     Davidson diagonalization with overlap
     ethr =  5.10E-10,  avg # of iterations =  4.0

     total cpu time spent up to now is   132280.1 secs

     total energy              =  -16565.85545663 Ry
     estimated scf accuracy    <       0.00000005 Ry

     iteration # 19     ecut=    40.00 Ry     beta= 0.40
     Davidson diagonalization with overlap
     ethr =  1.35E-11,  avg # of iterations =  5.2

     total cpu time spent up to now is   142375.3 secs

     total energy              =  -16565.85545673 Ry
     estimated scf accuracy    <       0.00000019 Ry

     iteration # 20     ecut=    40.00 Ry     beta= 0.40
     Davidson diagonalization with overlap
     ethr =  1.35E-11,  avg # of iterations =  4.0

     total cpu time spent up to now is   150228.7 secs

     End of self-consistent calculation

          k = 0.0000 0.0000 0.0000 ( 60005 PWs)   bands (ev):

   -18.6027 -18.6025 -18.6025 -18.6025 -18.6023 -18.6023 -18.6023 -18.6021
   -14.0198 -14.0198 -14.0197 -14.0197 -14.0197 -14.0144 -14.0144 -14.0144
   -14.0090 -14.0090 -14.0090 -14.0036 -14.0036 -14.0035 -14.0035 -14.0035
   -13.9687 -13.9687 -13.9687 -13.9686 -13.9686 -13.9686 -13.9684 -13.9684
   -13.9684 -13.9684 -13.9684 -13.9684 -13.9683 -13.9683 -13.9683 -13.9683
   -13.9683 -13.9683 -13.9681 -13.9681 -13.9681 -13.9680 -13.9680 -13.9680
    -9.3534  -9.1550  -9.1550  -9.1550  -8.9108  -8.9108  -8.9108  -8.8443
    -8.8443  -8.8443  -8.8443  -8.8443  -8.8443  -8.8438  -8.8438  -8.8438
    -8.8387  -8.8387  -8.8387  -8.6172  -8.6172  -8.6151  -8.6151  -8.6151
    -5.7337  -5.3912  -5.3912  -5.3912  -5.3782  -5.3782  -5.3782  -5.3780
    -5.3780  -5.3780  -5.3780  -5.3780  -5.3780  -5.3742  -5.3742  -5.3742
    -5.3742  -5.3742  -5.3742  -5.3709  -5.3709  -5.3709  -5.3705  -5.3705
    -5.3705  -5.2020  -5.2020  -5.2020  -4.6955  -4.6955  -4.6955  -4.1850
    -0.6542  -0.6542  -0.6542  -0.5535  -0.5535  -0.5535  -0.5535  -0.5535
    -0.5535  -0.4212  -0.4212  -0.4212   0.6156   0.6156   0.6156   0.7473
     0.7473   0.7473   0.8951   0.8951   0.8951   1.2152   1.2152   1.2152
     1.2152   1.2152   1.2152   1.3155   1.3155   1.3155   1.3155   1.3155
     1.3155   1.3639   1.3639   1.3639   1.3639   1.3639   1.3639   1.4032
     1.4032   1.4032   1.4106   1.4106   1.4296   1.4296   1.4296   1.5586
     1.5586   1.5586   1.5802   1.5802   1.5802   1.5802   1.5802   1.5802
     1.6660   1.6660   1.6660   1.8645   1.8645   1.8645   2.0594   2.0594
     2.0594   2.0716   2.0716   2.0716   2.2978   2.2978   2.2978   2.7321
     4.1457   4.1457   4.1457   4.5738   4.5738   4.5738   4.5738   4.5738
     4.5738   4.9046   4.9046   4.9046   5.9133   6.7649   6.9905   6.9905
     7.3372   7.3372   7.3372   7.3852   7.3852   7.3852   7.5080   7.5080
     7.5080   7.6154   7.6154   7.6156   7.7775   7.8617   7.8648   7.8648
     7.8648   7.8648   7.8814

     occupation numbers 
     1.0000   1.0000   1.0000   1.0000   1.0000   1.0000   1.0000   1.0000
     1.0000   1.0000   1.0000   1.0000   1.0000   1.0000   1.0000   1.0000
     1.0000   1.0000   1.0000   1.0000   1.0000   1.0000   1.0000   1.0000
     1.0000   1.0000   1.0000   1.0000   1.0000   1.0000   1.0000   1.0000
     1.0000   1.0000   1.0000   1.0000   1.0000   1.0000   1.0000   1.0000
     1.0000   1.0000   1.0000   1.0000   1.0000   1.0000   1.0000   1.0000
     1.0000   1.0000   1.0000   1.0000   1.0000   1.0000   1.0000   1.0000
     1.0000   1.0000   1.0000   1.0000   1.0000   1.0000   1.0000   1.0000
     1.0000   1.0000   1.0000   1.0000   1.0000   1.0000   1.0000   1.0000
     1.0000   1.0000   1.0000   1.0000   1.0000   1.0000   1.0000   1.0000
     1.0000   1.0000   1.0000   1.0000   1.0000   1.0000   1.0000   1.0000
     1.0000   1.0000   1.0000   1.0000   1.0000   1.0000   1.0000   1.0000
     1.0000   1.0000   1.0000   1.0000   1.0000   1.0000   1.0000   1.0000
     1.0000   1.0000   1.0000   1.0000   1.0000   1.0000   1.0000   1.0000
     1.0000   1.0000   1.0000   1.0000   1.0000   1.0000   1.0000   1.0000
     1.0000   1.0000   1.0000   1.0000   1.0000   1.0000   1.0000   1.0000
     1.0000   1.0000   1.0000   1.0000   1.0000   1.0000   1.0000   1.0000
     1.0000   1.0000   1.0000   1.0000   1.0000   1.0000   1.0000   1.0000
     1.0000   1.0000   1.0000   1.0000   1.0000   1.0000   1.0000   1.0002
     1.0002   1.0002   1.0003   1.0003   1.0003   1.0003   1.0003   1.0003
     1.0024   1.0024   1.0024   1.0509   1.0509   1.0509   0.9995   0.9995
     0.9995   0.9749   0.9749   0.9749   0.2359   0.2359   0.2359   0.0000
     0.0000   0.0000   0.0000   0.0000   0.0000   0.0000   0.0000   0.0000
     0.0000   0.0000   0.0000   0.0000   0.0000   0.0000   0.0000   0.0000
     0.0000   0.0000   0.0000   0.0000   0.0000   0.0000   0.0000   0.0000
     0.0000   0.0000   0.0000   0.0000   0.0000   0.0000   0.0000   0.0000
     0.0000   0.0000   0.0000

          k = 0.0000 0.0000 0.1000 ( 59957 PWs)   bands (ev):

   -18.6027 -18.6025 -18.6025 -18.6025 -18.6023 -18.6023 -18.6023 -18.6021
   -14.0197 -14.0197 -14.0195 -14.0195 -14.0195 -14.0145 -14.0145 -14.0142
   -14.0093 -14.0089 -14.0089 -14.0038 -14.0037 -14.0037 -14.0036 -14.0035
   -13.9687 -13.9686 -13.9686 -13.9686 -13.9686 -13.9686 -13.9684 -13.9684
   -13.9684 -13.9684 -13.9684 -13.9684 -13.9683 -13.9683 -13.9683 -13.9683
   -13.9683 -13.9683 -13.9680 -13.9680 -13.9680 -13.9680 -13.9680 -13.9680
    -9.3500  -9.1633  -9.1517  -9.1517  -8.9320  -8.9320  -8.9092  -8.8442
    -8.8442  -8.8441  -8.8441  -8.8438  -8.8438  -8.8406  -8.8388  -8.8388
    -8.8347  -8.8234  -8.8234  -8.6211  -8.6180  -8.6180  -8.6171  -8.6151
    -5.7222  -5.3909  -5.3909  -5.3907  -5.3784  -5.3784  -5.3781  -5.3781
    -5.3781  -5.3781  -5.3779  -5.3779  -5.3779  -5.3743  -5.3743  -5.3743
    -5.3743  -5.3741  -5.3741  -5.3714  -5.3710  -5.3710  -5.3708  -5.3708
    -5.3706  -5.2170  -5.1913  -5.1913  -4.7104  -4.7104  -4.6856  -4.2011
    -0.6520  -0.6520  -0.6156  -0.5562  -0.5562  -0.5506  -0.5506  -0.5160
    -0.5160  -0.4248  -0.4248  -0.3838   0.6188   0.6215   0.6215   0.7440
     0.7527   0.7527   0.8672   0.8880   0.8880   1.1522   1.1522   1.1608
     1.1608   1.2144   1.2144   1.3167   1.3167   1.3215   1.3215   1.3222
     1.3222   1.3553   1.3627   1.3627   1.3694   1.3694   1.3758   1.3758
     1.4033   1.4104   1.4250   1.4250   1.4326   1.4835   1.4835   1.5553
     1.5553   1.5553   1.5739   1.5739   1.5779   1.5779   1.5815   1.5815
     1.6614   1.6625   1.6625   1.8263   1.8676   1.8676   2.0487   2.0487
     2.0574   2.0574   2.0597   2.0713   2.2572   2.2572   2.2999   2.6751
     4.1580   4.1580   4.2755   4.5647   4.5647   4.5831   4.5831   4.6763
     4.6763   4.8979   4.8979   4.9972   5.9369   6.7827   7.0035   7.0098
     7.2602   7.3482   7.3482   7.3930   7.4021   7.4021   7.4066   7.5116
     7.5116   7.6135   7.6145   7.6145   7.7908   7.7908   7.8258   7.8376
     7.8376   7.8635   7.8805

     occupation numbers 
     1.0000   1.0000   1.0000   1.0000   1.0000   1.0000   1.0000   1.0000
     1.0000   1.0000   1.0000   1.0000   1.0000   1.0000   1.0000   1.0000
     1.0000   1.0000   1.0000   1.0000   1.0000   1.0000   1.0000   1.0000
     1.0000   1.0000   1.0000   1.0000   1.0000   1.0000   1.0000   1.0000
     1.0000   1.0000   1.0000   1.0000   1.0000   1.0000   1.0000   1.0000
     1.0000   1.0000   1.0000   1.0000   1.0000   1.0000   1.0000   1.0000
     1.0000   1.0000   1.0000   1.0000   1.0000   1.0000   1.0000   1.0000
     1.0000   1.0000   1.0000   1.0000   1.0000   1.0000   1.0000   1.0000
     1.0000   1.0000   1.0000   1.0000   1.0000   1.0000   1.0000   1.0000
     1.0000   1.0000   1.0000   1.0000   1.0000   1.0000   1.0000   1.0000
     1.0000   1.0000   1.0000   1.0000   1.0000   1.0000   1.0000   1.0000
     1.0000   1.0000   1.0000   1.0000   1.0000   1.0000   1.0000   1.0000
     1.0000   1.0000   1.0000   1.0000   1.0000   1.0000   1.0000   1.0000
     1.0000   1.0000   1.0000   1.0000   1.0000   1.0000   1.0000   1.0000
     1.0000   1.0000   1.0000   1.0000   1.0000   1.0000   1.0000   1.0000
     1.0000   1.0000   1.0000   1.0000   1.0000   1.0000   1.0000   1.0000
     1.0000   1.0000   1.0000   1.0000   1.0000   1.0000   1.0000   1.0000
     1.0000   1.0000   1.0000   1.0000   1.0000   1.0000   1.0000   1.0000
     1.0000   1.0000   1.0000   1.0000   1.0000   1.0000   1.0000   1.0002
     1.0002   1.0002   1.0003   1.0003   1.0003   1.0003   1.0003   1.0003
     1.0022   1.0022   1.0022   1.0341   1.0523   1.0523   1.0183   1.0183
     1.0032   1.0032   0.9990   0.9755   0.3547   0.3547   0.2305   0.0001
     0.0000   0.0000   0.0000   0.0000   0.0000   0.0000   0.0000   0.0000
     0.0000   0.0000   0.0000   0.0000   0.0000   0.0000   0.0000   0.0000
     0.0000   0.0000   0.0000   0.0000   0.0000   0.0000   0.0000   0.0000
     0.0000   0.0000   0.0000   0.0000   0.0000   0.0000   0.0000   0.0000
     0.0000   0.0000   0.0000

          k = 0.0000 0.0000 0.2000 ( 59981 PWs)   bands (ev):

   -18.6027 -18.6025 -18.6025 -18.6025 -18.6023 -18.6023 -18.6022 -18.6021
   -14.0197 -14.0197 -14.0190 -14.0190 -14.0187 -14.0147 -14.0147 -14.0134
   -14.0100 -14.0087 -14.0087 -14.0046 -14.0043 -14.0043 -14.0036 -14.0035
   -13.9687 -13.9687 -13.9687 -13.9686 -13.9686 -13.9686 -13.9684 -13.9684
   -13.9684 -13.9684 -13.9684 -13.9684 -13.9683 -13.9683 -13.9683 -13.9683
   -13.9683 -13.9683 -13.9681 -13.9681 -13.9680 -13.9680 -13.9680 -13.9680
    -9.3402  -9.1851  -9.1418  -9.1418  -8.9692  -8.9692  -8.9044  -8.8461
    -8.8442  -8.8442  -8.8438  -8.8438  -8.8437  -8.8437  -8.8392  -8.8392
    -8.8108  -8.7873  -8.7873  -8.6329  -8.6267  -8.6267  -8.6169  -8.6153
    -5.6884  -5.3899  -5.3899  -5.3893  -5.3793  -5.3793  -5.3782  -5.3782
    -5.3778  -5.3778  -5.3777  -5.3777  -5.3772  -5.3746  -5.3746  -5.3746
    -5.3746  -5.3739  -5.3739  -5.3729  -5.3716  -5.3716  -5.3712  -5.3712
    -5.3709  -5.2597  -5.1599  -5.1599  -4.7528  -4.7528  -4.6563  -4.2464
    -0.6453  -0.6453  -0.5639  -0.5639  -0.5421  -0.5421  -0.5038  -0.4352
    -0.4352  -0.4067  -0.4067  -0.2744   0.6278   0.6387   0.6387   0.7343
     0.7691   0.7691   0.7762   0.8667   0.8667   0.9959   0.9959   1.0815
     1.0815   1.1960   1.2120   1.2120   1.2720   1.2720   1.3201   1.3201
     1.3417   1.3417   1.3592   1.3592   1.3854   1.3854   1.4039   1.4099
     1.4413   1.4592   1.4592   1.4723   1.4723   1.5450   1.5450   1.5457
     1.5556   1.5556   1.5669   1.5669   1.5713   1.5713   1.5856   1.5856
     1.6486   1.6528   1.6528   1.7408   1.8768   1.8768   2.0165   2.0165
     2.0175   2.0175   2.0606   2.0704   2.1661   2.1661   2.3064   2.5645
     4.1929   4.1929   4.5380   4.5380   4.5973   4.6098   4.6098   4.8779
     4.8779   4.9509   4.9509   5.2524   6.0066   6.8357   7.0421   7.0668
     7.0847   7.1525   7.3818   7.3818   7.4162   7.4513   7.4513   7.4884
     7.4884   7.5226   7.5226   7.5775   7.6989   7.7078   7.7078   7.7779
     7.7779   7.8653   7.8654

     occupation numbers 
     1.0000   1.0000   1.0000   1.0000   1.0000   1.0000   1.0000   1.0000
     1.0000   1.0000   1.0000   1.0000   1.0000   1.0000   1.0000   1.0000
     1.0000   1.0000   1.0000   1.0000   1.0000   1.0000   1.0000   1.0000
     1.0000   1.0000   1.0000   1.0000   1.0000   1.0000   1.0000   1.0000
     1.0000   1.0000   1.0000   1.0000   1.0000   1.0000   1.0000   1.0000
     1.0000   1.0000   1.0000   1.0000   1.0000   1.0000   1.0000   1.0000
     1.0000   1.0000   1.0000   1.0000   1.0000   1.0000   1.0000   1.0000
     1.0000   1.0000   1.0000   1.0000   1.0000   1.0000   1.0000   1.0000
     1.0000   1.0000   1.0000   1.0000   1.0000   1.0000   1.0000   1.0000
     1.0000   1.0000   1.0000   1.0000   1.0000   1.0000   1.0000   1.0000
     1.0000   1.0000   1.0000   1.0000   1.0000   1.0000   1.0000   1.0000
     1.0000   1.0000   1.0000   1.0000   1.0000   1.0000   1.0000   1.0000
     1.0000   1.0000   1.0000   1.0000   1.0000   1.0000   1.0000   1.0000
     1.0000   1.0000   1.0000   1.0000   1.0000   1.0000   1.0000   1.0000
     1.0000   1.0000   1.0000   1.0000   1.0000   1.0000   1.0000   1.0000
     1.0000   1.0000   1.0000   1.0000   1.0000   1.0000   1.0000   1.0000
     1.0000   1.0000   1.0000   1.0000   1.0000   1.0000   1.0000   1.0000
     1.0000   1.0000   1.0000   1.0000   1.0000   1.0000   1.0000   1.0000
     1.0000   1.0000   1.0000   1.0000   1.0000   1.0001   1.0001   1.0001
     1.0002   1.0002   1.0002   1.0002   1.0003   1.0003   1.0004   1.0004
     1.0017   1.0018   1.0018   1.0100   1.0567   1.0567   1.0596   1.0596
     1.0586   1.0586   0.9973   0.9774   0.6851   0.6851   0.2144   0.0024
     0.0000   0.0000   0.0000   0.0000   0.0000   0.0000   0.0000   0.0000
     0.0000   0.0000   0.0000   0.0000   0.0000   0.0000   0.0000   0.0000
     0.0000   0.0000   0.0000   0.0000   0.0000   0.0000   0.0000   0.0000
     0.0000   0.0000   0.0000   0.0000   0.0000   0.0000   0.0000   0.0000
     0.0000   0.0000   0.0000

          k = 0.0000 0.0000 0.3000 ( 59968 PWs)   bands (ev):

   -18.6027 -18.6025 -18.6024 -18.6024 -18.6023 -18.6023 -18.6022 -18.6021
   -14.0197 -14.0197 -14.0182 -14.0182 -14.0175 -14.0151 -14.0151 -14.0122
   -14.0112 -14.0083 -14.0083 -14.0058 -14.0051 -14.0051 -14.0035 -14.0035
   -13.9687 -13.9686 -13.9686 -13.9686 -13.9686 -13.9686 -13.9684 -13.9684
   -13.9684 -13.9684 -13.9684 -13.9684 -13.9683 -13.9683 -13.9683 -13.9683
   -13.9683 -13.9683 -13.9681 -13.9681 -13.9681 -13.9681 -13.9681 -13.9680
    -9.3241  -9.2143  -9.1256  -9.1256  -9.0074  -9.0074  -8.8969  -8.8545
    -8.8442  -8.8442  -8.8439  -8.8439  -8.8431  -8.8431  -8.8399  -8.8399
    -8.7784  -8.7506  -8.7506  -8.6520  -8.6412  -8.6412  -8.6167  -8.6155
    -5.6347  -5.3885  -5.3885  -5.3871  -5.3807  -5.3807  -5.3779  -5.3779
    -5.3773  -5.3773  -5.3773  -5.3773  -5.3760  -5.3751  -5.3750  -5.3750
    -5.3750  -5.3750  -5.3735  -5.3735  -5.3728  -5.3728  -5.3716  -5.3716
    -5.3714  -5.3242  -5.1103  -5.1103  -4.8161  -4.8161  -4.6089  -4.3131
    -0.6348  -0.6348  -0.5757  -0.5757  -0.5285  -0.5285  -0.4510  -0.4510
    -0.3294  -0.2343  -0.2343  -0.1005   0.6136   0.6421   0.6664   0.6664
     0.7194   0.7752   0.7752   0.7962   0.7962   0.8329   0.8329   0.9576
     1.0067   1.0067   1.2092   1.2092   1.2375   1.2375   1.3253   1.3253
     1.3538   1.3538   1.3717   1.3717   1.4047   1.4091   1.4099   1.4099
     1.4551   1.4880   1.4880   1.5270   1.5270   1.5273   1.5273   1.5308
     1.5609   1.5609   1.5749   1.5749   1.5921   1.5921   1.6310   1.6394
     1.6394   1.6553   1.6553   1.6619   1.8929   1.8929   1.9528   1.9528
     1.9680   1.9680   2.0619   2.0690   2.0738   2.0738   2.3180   2.4698
     4.2455   4.2455   4.4954   4.4954   4.6504   4.6504   4.8455   4.8455
     5.0151   5.3358   5.3358   5.6227   6.1192   6.8038   6.8731   6.9222
     7.1041   7.1449   7.1449   7.1587   7.4389   7.4389   7.4548   7.4898
     7.4989   7.5271   7.5285   7.5285   7.5415   7.5415   7.7131   7.7131
     7.7420   7.7459   7.8162

     occupation numbers 
     1.0000   1.0000   1.0000   1.0000   1.0000   1.0000   1.0000   1.0000
     1.0000   1.0000   1.0000   1.0000   1.0000   1.0000   1.0000   1.0000
     1.0000   1.0000   1.0000   1.0000   1.0000   1.0000   1.0000   1.0000
     1.0000   1.0000   1.0000   1.0000   1.0000   1.0000   1.0000   1.0000
     1.0000   1.0000   1.0000   1.0000   1.0000   1.0000   1.0000   1.0000
     1.0000   1.0000   1.0000   1.0000   1.0000   1.0000   1.0000   1.0000
     1.0000   1.0000   1.0000   1.0000   1.0000   1.0000   1.0000   1.0000
     1.0000   1.0000   1.0000   1.0000   1.0000   1.0000   1.0000   1.0000
     1.0000   1.0000   1.0000   1.0000   1.0000   1.0000   1.0000   1.0000
     1.0000   1.0000   1.0000   1.0000   1.0000   1.0000   1.0000   1.0000
     1.0000   1.0000   1.0000   1.0000   1.0000   1.0000   1.0000   1.0000
     1.0000   1.0000   1.0000   1.0000   1.0000   1.0000   1.0000   1.0000
     1.0000   1.0000   1.0000   1.0000   1.0000   1.0000   1.0000   1.0000
     1.0000   1.0000   1.0000   1.0000   1.0000   1.0000   1.0000   1.0000
     1.0000   1.0000   1.0000   1.0000   1.0000   1.0000   1.0000   1.0000
     1.0000   1.0000   1.0000   1.0000   1.0000   1.0000   1.0000   1.0000
     1.0000   1.0000   1.0000   1.0000   1.0000   1.0000   1.0000   1.0000
     1.0000   1.0000   1.0000   1.0000   1.0000   1.0000   1.0000   1.0000
     1.0000   1.0000   1.0000   1.0001   1.0001   1.0001   1.0001   1.0001
     1.0002   1.0002   1.0003   1.0003   1.0004   1.0004   1.0011   1.0014
     1.0014   1.0019   1.0019   1.0022   1.0641   1.0641   1.0830   1.0830
     1.0830   1.0830   0.9947   0.9803   0.9701   0.9701   0.1875   0.0182
     0.0000   0.0000   0.0000   0.0000   0.0000   0.0000   0.0000   0.0000
     0.0000   0.0000   0.0000   0.0000   0.0000   0.0000   0.0000   0.0000
     0.0000   0.0000   0.0000   0.0000   0.0000   0.0000   0.0000   0.0000
     0.0000   0.0000   0.0000   0.0000   0.0000   0.0000   0.0000   0.0000
     0.0000   0.0000   0.0000

          k = 0.0000 0.0000 0.4000 ( 59968 PWs)   bands (ev):

   -18.6026 -18.6026 -18.6024 -18.6024 -18.6023 -18.6023 -18.6022 -18.6021
   -14.0197 -14.0197 -14.0173 -14.0172 -14.0160 -14.0156 -14.0156 -14.0128
   -14.0107 -14.0078 -14.0078 -14.0073 -14.0061 -14.0061 -14.0035 -14.0035
   -13.9687 -13.9686 -13.9686 -13.9686 -13.9685 -13.9685 -13.9685 -13.9685
   -13.9684 -13.9684 -13.9684 -13.9684 -13.9683 -13.9683 -13.9683 -13.9683
   -13.9682 -13.9682 -13.9681 -13.9681 -13.9681 -13.9681 -13.9680 -13.9680
    -9.3023  -9.2456  -9.1034  -9.1034  -9.0434  -9.0434  -8.8872  -8.8649
    -8.8441  -8.8441  -8.8439  -8.8439  -8.8423  -8.8423  -8.8406  -8.8406
    -8.7430  -8.7166  -8.7166  -8.6777  -8.6612  -8.6612  -8.6164  -8.6158
    -5.5652  -5.4024  -5.3867  -5.3867  -5.3842  -5.3826  -5.3826  -5.3780
    -5.3770  -5.3770  -5.3768  -5.3768  -5.3767  -5.3767  -5.3756  -5.3756
    -5.3755  -5.3755  -5.3747  -5.3743  -5.3743  -5.3731  -5.3731  -5.3723
    -5.3721  -5.3721  -5.0457  -5.0457  -4.8916  -4.8916  -4.5460  -4.3913
    -0.6213  -0.6213  -0.5903  -0.5903  -0.5110  -0.5110  -0.4704  -0.4704
    -0.1082  -0.0117  -0.0117   0.1267   0.3914   0.5154   0.5154   0.6601
     0.6781   0.7008   0.7029   0.7029   0.7907   0.7907   0.8339   0.8339
     0.9397   0.9397   1.2075   1.2075   1.2179   1.2179   1.3320   1.3320
     1.3470   1.3470   1.4057   1.4080   1.4091   1.4091   1.4401   1.4401
     1.4726   1.4907   1.4907   1.5025   1.5025   1.5113   1.5113   1.5124
     1.5472   1.5472   1.6011   1.6011   1.6143   1.6181   1.6253   1.6253
     1.6782   1.6782   1.7434   1.7434   1.8717   1.8717   1.9034   1.9034
     1.9170   1.9170   2.0023   2.0023   2.0636   2.0673   2.3361   2.4053
     4.3088   4.3088   4.4399   4.4399   4.6999   4.6999   4.8026   4.8026
     5.4737   5.7810   5.7810   6.0640   6.2697   6.3919   6.6564   6.7163
     6.7163   7.0243   7.0396   7.1924   7.2808   7.3498   7.3967   7.5194
     7.5194   7.5693   7.5693   7.5843   7.6245   7.6245   7.6549   7.6549
     7.7265   7.7266   7.7980

     occupation numbers 
     1.0000   1.0000   1.0000   1.0000   1.0000   1.0000   1.0000   1.0000
     1.0000   1.0000   1.0000   1.0000   1.0000   1.0000   1.0000   1.0000
     1.0000   1.0000   1.0000   1.0000   1.0000   1.0000   1.0000   1.0000
     1.0000   1.0000   1.0000   1.0000   1.0000   1.0000   1.0000   1.0000
     1.0000   1.0000   1.0000   1.0000   1.0000   1.0000   1.0000   1.0000
     1.0000   1.0000   1.0000   1.0000   1.0000   1.0000   1.0000   1.0000
     1.0000   1.0000   1.0000   1.0000   1.0000   1.0000   1.0000   1.0000
     1.0000   1.0000   1.0000   1.0000   1.0000   1.0000   1.0000   1.0000
     1.0000   1.0000   1.0000   1.0000   1.0000   1.0000   1.0000   1.0000
     1.0000   1.0000   1.0000   1.0000   1.0000   1.0000   1.0000   1.0000
     1.0000   1.0000   1.0000   1.0000   1.0000   1.0000   1.0000   1.0000
     1.0000   1.0000   1.0000   1.0000   1.0000   1.0000   1.0000   1.0000
     1.0000   1.0000   1.0000   1.0000   1.0000   1.0000   1.0000   1.0000
     1.0000   1.0000   1.0000   1.0000   1.0000   1.0000   1.0000   1.0000
     1.0000   1.0000   1.0000   1.0000   1.0000   1.0000   1.0000   1.0000
     1.0000   1.0000   1.0000   1.0000   1.0000   1.0000   1.0000   1.0000
     1.0000   1.0000   1.0000   1.0000   1.0000   1.0000   1.0000   1.0000
     1.0000   1.0000   1.0000   1.0000   1.0000   1.0000   1.0000   1.0000
     1.0000   1.0000   1.0000   1.0000   1.0000   1.0001   1.0001   1.0001
     1.0001   1.0001   1.0006   1.0006   1.0008   1.0008   1.0010   1.0010
     1.0031   1.0031   1.0104   1.0104   1.0542   1.0542   1.0687   1.0687
     1.0742   1.0742   1.0707   1.0707   0.9914   0.9838   0.1502   0.0559
     0.0000   0.0000   0.0000   0.0000   0.0000   0.0000   0.0000   0.0000
     0.0000   0.0000   0.0000   0.0000   0.0000   0.0000   0.0000   0.0000
     0.0000   0.0000   0.0000   0.0000   0.0000   0.0000   0.0000   0.0000
     0.0000   0.0000   0.0000   0.0000   0.0000   0.0000   0.0000   0.0000
     0.0000   0.0000   0.0000

          k = 0.0000 0.0000-0.5000 ( 60000 PWs)   bands (ev):

   -18.6026 -18.6026 -18.6024 -18.6024 -18.6024 -18.6024 -18.6022 -18.6022
   -14.0197 -14.0196 -14.0164 -14.0164 -14.0164 -14.0164 -14.0144 -14.0144
   -14.0090 -14.0089 -14.0070 -14.0070 -14.0070 -14.0070 -14.0035 -14.0035
   -13.9687 -13.9686 -13.9686 -13.9686 -13.9685 -13.9685 -13.9685 -13.9685
   -13.9684 -13.9684 -13.9684 -13.9684 -13.9684 -13.9684 -13.9683 -13.9683
   -13.9682 -13.9682 -13.9682 -13.9682 -13.9681 -13.9681 -13.9680 -13.9680
    -9.2757  -9.2757  -9.0758  -9.0758  -9.0758  -9.0758  -8.8762  -8.8762
    -8.8440  -8.8440  -8.8440  -8.8440  -8.8415  -8.8415  -8.8415  -8.8415
    -8.7086  -8.7086  -8.6866  -8.6866  -8.6865  -8.6865  -8.6161  -8.6161
    -5.4854  -5.4854  -5.3846  -5.3846  -5.3846  -5.3846  -5.3811  -5.3811
    -5.3762  -5.3762  -5.3762  -5.3762  -5.3761  -5.3761  -5.3761  -5.3761
    -5.3758  -5.3758  -5.3758  -5.3758  -5.3734  -5.3734  -5.3726  -5.3726
    -5.3726  -5.3726  -4.9707  -4.9707  -4.9707  -4.9707  -4.4716  -4.4715
    -0.6060  -0.6060  -0.6060  -0.6060  -0.4911  -0.4911  -0.4911  -0.4911
     0.1403   0.1404   0.2448   0.2448   0.2448   0.2448   0.3925   0.3926
     0.6804   0.6804   0.7456   0.7456   0.7456   0.7456   0.8819   0.8819
     0.8819   0.8819   1.2092   1.2092   1.2093   1.2093   1.3395   1.3395
     1.3395   1.3395   1.4069   1.4069   1.4501   1.4501   1.4501   1.4501
     1.4722   1.4722   1.4722   1.4722   1.4923   1.4923   1.5308   1.5308
     1.5308   1.5308   1.6064   1.6064   1.6122   1.6122   1.6122   1.6122
     1.7785   1.7785   1.7785   1.7785   1.8273   1.8273   1.8273   1.8273
     1.9519   1.9519   1.9519   1.9519   2.0655   2.0655   2.3635   2.3635
     4.3759   4.3759   4.3759   4.3759   4.7525   4.7525   4.7525   4.7525
     5.9408   5.9409   6.2509   6.2509   6.2510   6.2510   6.4514   6.4514
     6.5417   6.5418   7.1841   7.1841   7.2896   7.2896   7.4260   7.4260
     7.6068   7.6068   7.6068   7.6069   7.6193   7.6193   7.6193   7.6193
     7.7222   7.7224   7.7224

     occupation numbers 
     1.0000   1.0000   1.0000   1.0000   1.0000   1.0000   1.0000   1.0000
     1.0000   1.0000   1.0000   1.0000   1.0000   1.0000   1.0000   1.0000
     1.0000   1.0000   1.0000   1.0000   1.0000   1.0000   1.0000   1.0000
     1.0000   1.0000   1.0000   1.0000   1.0000   1.0000   1.0000   1.0000
     1.0000   1.0000   1.0000   1.0000   1.0000   1.0000   1.0000   1.0000
     1.0000   1.0000   1.0000   1.0000   1.0000   1.0000   1.0000   1.0000
     1.0000   1.0000   1.0000   1.0000   1.0000   1.0000   1.0000   1.0000
     1.0000   1.0000   1.0000   1.0000   1.0000   1.0000   1.0000   1.0000
     1.0000   1.0000   1.0000   1.0000   1.0000   1.0000   1.0000   1.0000
     1.0000   1.0000   1.0000   1.0000   1.0000   1.0000   1.0000   1.0000
     1.0000   1.0000   1.0000   1.0000   1.0000   1.0000   1.0000   1.0000
     1.0000   1.0000   1.0000   1.0000   1.0000   1.0000   1.0000   1.0000
     1.0000   1.0000   1.0000   1.0000   1.0000   1.0000   1.0000   1.0000
     1.0000   1.0000   1.0000   1.0000   1.0000   1.0000   1.0000   1.0000
     1.0000   1.0000   1.0000   1.0000   1.0000   1.0000   1.0000   1.0000
     1.0000   1.0000   1.0000   1.0000   1.0000   1.0000   1.0000   1.0000
     1.0000   1.0000   1.0000   1.0000   1.0000   1.0000   1.0000   1.0000
     1.0000   1.0000   1.0000   1.0000   1.0000   1.0000   1.0000   1.0000
     1.0000   1.0000   1.0000   1.0000   1.0000   1.0000   1.0001   1.0001
     1.0001   1.0001   1.0006   1.0006   1.0007   1.0007   1.0007   1.0007
     1.0181   1.0181   1.0181   1.0181   1.0345   1.0345   1.0345   1.0345
     1.0829   1.0829   1.0829   1.0829   0.9877   0.9876   0.1043   0.1043
     0.0000   0.0000   0.0000   0.0000   0.0000   0.0000   0.0000   0.0000
     0.0000   0.0000   0.0000   0.0000   0.0000   0.0000   0.0000   0.0000
     0.0000   0.0000   0.0000   0.0000   0.0000   0.0000   0.0000   0.0000
     0.0000   0.0000   0.0000   0.0000   0.0000   0.0000   0.0000   0.0000
     0.0000   0.0000   0.0000

          k = 0.0000 0.1000 0.1000 ( 59965 PWs)   bands (ev):

   -18.6027 -18.6025 -18.6025 -18.6025 -18.6023 -18.6023 -18.6023 -18.6021
   -14.0196 -14.0195 -14.0195 -14.0193 -14.0193 -14.0146 -14.0142 -14.0142
   -14.0092 -14.0092 -14.0089 -14.0039 -14.0039 -14.0037 -14.0037 -14.0037
   -13.9687 -13.9686 -13.9686 -13.9686 -13.9686 -13.9686 -13.9684 -13.9684
   -13.9684 -13.9684 -13.9684 -13.9684 -13.9683 -13.9683 -13.9683 -13.9683
   -13.9683 -13.9683 -13.9680 -13.9680 -13.9680 -13.9680 -13.9680 -13.9680
    -9.3467  -9.1600  -9.1600  -9.1484  -8.9484  -8.9303  -8.9303  -8.8479
    -8.8441  -8.8441  -8.8438  -8.8390  -8.8390  -8.8347  -8.8347  -8.8335
    -8.8234  -8.8234  -8.8126  -8.6231  -8.6208  -8.6191  -8.6180  -8.6180
    -5.7107  -5.3908  -5.3906  -5.3900  -5.3785  -5.3785  -5.3783  -5.3783
    -5.3781  -5.3780  -5.3780  -5.3780  -5.3775  -5.3746  -5.3744  -5.3744
    -5.3742  -5.3742  -5.3738  -5.3715  -5.3715  -5.3711  -5.3711  -5.3709
    -5.3709  -5.2062  -5.2062  -5.1806  -4.7254  -4.7005  -4.7005  -4.2171
    -0.6497  -0.6226  -0.6042  -0.5533  -0.5533  -0.5204  -0.5187  -0.5187
    -0.5058  -0.4284  -0.3875  -0.3875   0.6245   0.6245   0.6269   0.7444
     0.7545   0.7578   0.8616   0.8616   0.8815   1.1160   1.1219   1.1219
     1.1605   1.1605   1.1949   1.2839   1.3209   1.3251   1.3251   1.3258
     1.3294   1.3359   1.3359   1.3682   1.3682   1.3763   1.3763   1.3819
     1.3828   1.4401   1.4475   1.4475   1.4856   1.4856   1.5107   1.5406
     1.5521   1.5545   1.5622   1.5753   1.5753   1.5796   1.5796   1.5893
     1.6491   1.6588   1.6680   1.8298   1.8298   1.8702   2.0391   2.0458
     2.0490   2.0490   2.0502   2.0641   2.2157   2.2589   2.2589   2.6182
     4.1702   4.2684   4.3040   4.5741   4.5741   4.6675   4.6675   4.6768
     4.6934   4.8911   4.9906   4.9906   5.9601   6.8000   7.0197   7.0248
     7.2698   7.2698   7.3577   7.4049   7.4102   7.4102   7.4145   7.4184
     7.5151   7.6030   7.6183   7.6183   7.7625   7.7833   7.7857   7.7857
     7.8275   7.8324   7.8582

     occupation numbers 
     1.0000   1.0000   1.0000   1.0000   1.0000   1.0000   1.0000   1.0000
     1.0000   1.0000   1.0000   1.0000   1.0000   1.0000   1.0000   1.0000
     1.0000   1.0000   1.0000   1.0000   1.0000   1.0000   1.0000   1.0000
     1.0000   1.0000   1.0000   1.0000   1.0000   1.0000   1.0000   1.0000
     1.0000   1.0000   1.0000   1.0000   1.0000   1.0000   1.0000   1.0000
     1.0000   1.0000   1.0000   1.0000   1.0000   1.0000   1.0000   1.0000
     1.0000   1.0000   1.0000   1.0000   1.0000   1.0000   1.0000   1.0000
     1.0000   1.0000   1.0000   1.0000   1.0000   1.0000   1.0000   1.0000
     1.0000   1.0000   1.0000   1.0000   1.0000   1.0000   1.0000   1.0000
     1.0000   1.0000   1.0000   1.0000   1.0000   1.0000   1.0000   1.0000
     1.0000   1.0000   1.0000   1.0000   1.0000   1.0000   1.0000   1.0000
     1.0000   1.0000   1.0000   1.0000   1.0000   1.0000   1.0000   1.0000
     1.0000   1.0000   1.0000   1.0000   1.0000   1.0000   1.0000   1.0000
     1.0000   1.0000   1.0000   1.0000   1.0000   1.0000   1.0000   1.0000
     1.0000   1.0000   1.0000   1.0000   1.0000   1.0000   1.0000   1.0000
     1.0000   1.0000   1.0000   1.0000   1.0000   1.0000   1.0000   1.0000
     1.0000   1.0000   1.0000   1.0000   1.0000   1.0000   1.0000   1.0000
     1.0000   1.0000   1.0000   1.0000   1.0000   1.0000   1.0000   1.0000
     1.0000   1.0000   1.0000   1.0000   1.0000   1.0000   1.0000   1.0001
     1.0002   1.0002   1.0002   1.0003   1.0003   1.0003   1.0003   1.0004
     1.0017   1.0021   1.0025   1.0355   1.0355   1.0536   1.0330   1.0231
     1.0178   1.0178   1.0158   0.9904   0.4992   0.3489   0.3489   0.0006
     0.0000   0.0000   0.0000   0.0000   0.0000   0.0000   0.0000   0.0000
     0.0000   0.0000   0.0000   0.0000   0.0000   0.0000   0.0000   0.0000
     0.0000   0.0000   0.0000   0.0000   0.0000   0.0000   0.0000   0.0000
     0.0000   0.0000   0.0000   0.0000   0.0000   0.0000   0.0000   0.0000
     0.0000   0.0000   0.0000

          k = 0.0000 0.1000 0.2000 ( 59945 PWs)   bands (ev):

   -18.6027 -18.6025 -18.6025 -18.6024 -18.6023 -18.6023 -18.6022 -18.6021
   -14.0195 -14.0195 -14.0190 -14.0187 -14.0186 -14.0148 -14.0144 -14.0135
   -14.0100 -14.0090 -14.0087 -14.0046 -14.0045 -14.0043 -14.0037 -14.0037
   -13.9687 -13.9687 -13.9686 -13.9686 -13.9686 -13.9686 -13.9684 -13.9684
   -13.9684 -13.9684 -13.9684 -13.9684 -13.9683 -13.9683 -13.9683 -13.9683
   -13.9683 -13.9683 -13.9681 -13.9681 -13.9680 -13.9680 -13.9680 -13.9680
    -9.3369  -9.1819  -9.1502  -9.1386  -8.9817  -8.9672  -8.9253  -8.8580
    -8.8441  -8.8438  -8.8437  -8.8394  -8.8362  -8.8348  -8.8292  -8.8233
    -8.8108  -8.7876  -8.7830  -8.6339  -8.6294  -8.6268  -8.6197  -8.6182
    -5.6770  -5.3900  -5.3896  -5.3885  -5.3795  -5.3792  -5.3786  -5.3781
    -5.3780  -5.3779  -5.3777  -5.3777  -5.3767  -5.3751  -5.3747  -5.3747
    -5.3745  -5.3740  -5.3735  -5.3728  -5.3719  -5.3716  -5.3716  -5.3713
    -5.3711  -5.2488  -5.1748  -5.1495  -4.7677  -4.7429  -4.6713  -4.2623
    -0.6430  -0.6097  -0.5611  -0.5448  -0.5266  -0.5065  -0.4987  -0.4387
    -0.4096  -0.4019  -0.3981  -0.2783   0.6334   0.6415   0.6425   0.7367
     0.7692   0.7729   0.7742   0.8448   0.8621   0.9790   0.9888   1.0611
     1.0815   1.1599   1.1843   1.1843   1.2358   1.2713   1.3229   1.3254
     1.3362   1.3441   1.3500   1.3648   1.3700   1.3777   1.3842   1.3928
     1.4673   1.4723   1.4905   1.4917   1.5115   1.5179   1.5260   1.5422
     1.5570   1.5585   1.5620   1.5778   1.5793   1.5808   1.5847   1.5943
     1.6325   1.6487   1.6665   1.7461   1.8404   1.8787   2.0103   2.0104
     2.0124   2.0179   2.0499   2.0605   2.1230   2.1673   2.2645   2.5071
     4.2048   4.3149   4.5475   4.6009   4.6082   4.6417   4.7097   4.8709
     4.9426   4.9595   4.9709   5.2459   6.0287   6.8515   7.0588   7.0782
     7.0942   7.1566   7.2938   7.3867   7.4212   7.4292   7.4619   7.4640
     7.4662   7.5153   7.5260   7.5887   7.6581   7.6910   7.6949   7.7664
     7.7736   7.8034   7.8108

     occupation numbers 
     1.0000   1.0000   1.0000   1.0000   1.0000   1.0000   1.0000   1.0000
     1.0000   1.0000   1.0000   1.0000   1.0000   1.0000   1.0000   1.0000
     1.0000   1.0000   1.0000   1.0000   1.0000   1.0000   1.0000   1.0000
     1.0000   1.0000   1.0000   1.0000   1.0000   1.0000   1.0000   1.0000
     1.0000   1.0000   1.0000   1.0000   1.0000   1.0000   1.0000   1.0000
     1.0000   1.0000   1.0000   1.0000   1.0000   1.0000   1.0000   1.0000
     1.0000   1.0000   1.0000   1.0000   1.0000   1.0000   1.0000   1.0000
     1.0000   1.0000   1.0000   1.0000   1.0000   1.0000   1.0000   1.0000
     1.0000   1.0000   1.0000   1.0000   1.0000   1.0000   1.0000   1.0000
     1.0000   1.0000   1.0000   1.0000   1.0000   1.0000   1.0000   1.0000
     1.0000   1.0000   1.0000   1.0000   1.0000   1.0000   1.0000   1.0000
     1.0000   1.0000   1.0000   1.0000   1.0000   1.0000   1.0000   1.0000
     1.0000   1.0000   1.0000   1.0000   1.0000   1.0000   1.0000   1.0000
     1.0000   1.0000   1.0000   1.0000   1.0000   1.0000   1.0000   1.0000
     1.0000   1.0000   1.0000   1.0000   1.0000   1.0000   1.0000   1.0000
     1.0000   1.0000   1.0000   1.0000   1.0000   1.0000   1.0000   1.0000
     1.0000   1.0000   1.0000   1.0000   1.0000   1.0000   1.0000   1.0000
     1.0000   1.0000   1.0000   1.0000   1.0000   1.0000   1.0000   1.0000
[...]
     atom   27 type  2   force =    -0.00000000    0.00020855   -0.00000000
     atom   28 type  2   force =    -0.00000000    0.00021075    0.00000000
     atom   29 type  2   force =     0.00000000   -0.00021075   -0.00000000
     atom   30 type  2   force =     0.00000000   -0.00021115    0.00000000
     atom   31 type  2   force =     0.00000000    0.00021075   -0.00000000
     atom   32 type  2   force =    -0.00000000    0.00021115   -0.00000000
     atom   33 type  2   force =    -0.00020855   -0.00000000   -0.00000000
     atom   34 type  2   force =    -0.00021075   -0.00000000    0.00000000
     atom   35 type  2   force =    -0.00021075    0.00000000   -0.00000000
     atom   36 type  2   force =    -0.00021115    0.00000000    0.00000000
     atom   37 type  2   force =     0.00020855   -0.00000000   -0.00000000
     atom   38 type  2   force =     0.00021075   -0.00000000    0.00000000
     atom   39 type  2   force =     0.00021075    0.00000000   -0.00000000
     atom   40 type  2   force =     0.00021115   -0.00000000   -0.00000000
     The local contribution  to forces
     atom    1 type  1   force =     0.00004746    0.00004746    0.00004746
     atom    2 type  1   force =     0.00004746    0.00004746   -0.00004746
     atom    3 type  1   force =     0.00004746   -0.00004746    0.00004746
     atom    4 type  1   force =     0.00004746   -0.00004746   -0.00004746
     atom    5 type  1   force =    -0.00004746    0.00004746    0.00004746
     atom    6 type  1   force =    -0.00004746    0.00004746   -0.00004746
     atom    7 type  1   force =    -0.00004746   -0.00004746    0.00004746
     atom    8 type  1   force =    -0.00004746   -0.00004746   -0.00004746
     atom    9 type  3   force =     0.00000000    0.00000000   -0.00000000
     atom   10 type  3   force =     0.00000000    0.00000000    0.00000000
     atom   11 type  3   force =     0.00000000    0.00000000   -0.00000000
     atom   12 type  3   force =     0.00000000    0.00000000    0.00000000
     atom   13 type  3   force =     0.00000000    0.00000000   -0.00000000
     atom   14 type  3   force =     0.00000000    0.00000000    0.00000000
     atom   15 type  3   force =     0.00000000    0.00000000   -0.00000000
     atom   16 type  3   force =     0.00000000    0.00000000    0.00000000
     atom   17 type  2   force =    -0.00000000    0.00000000    0.00020262
     atom   18 type  2   force =     0.00000000    0.00000000   -0.00020262
     atom   19 type  2   force =     0.00000000   -0.00000000    0.00020270
     atom   20 type  2   force =     0.00000000    0.00000000   -0.00020270
     atom   21 type  2   force =    -0.00000000   -0.00000000    0.00020270
     atom   22 type  2   force =     0.00000000    0.00000000   -0.00020270
     atom   23 type  2   force =     0.00000000    0.00000000    0.00020440
     atom   24 type  2   force =    -0.00000000   -0.00000000   -0.00020440
     atom   25 type  2   force =     0.00000000    0.00020262   -0.00000000
     atom   26 type  2   force =     0.00000000    0.00020270   -0.00000000
     atom   27 type  2   force =    -0.00000000   -0.00020262    0.00000000
     atom   28 type  2   force =     0.00000000   -0.00020270    0.00000000
     atom   29 type  2   force =    -0.00000000    0.00020270    0.00000000
     atom   30 type  2   force =     0.00000000    0.00020440    0.00000000
     atom   31 type  2   force =     0.00000000   -0.00020270    0.00000000
     atom   32 type  2   force =     0.00000000   -0.00020440   -0.00000000
     atom   33 type  2   force =     0.00020262    0.00000000    0.00000000
     atom   34 type  2   force =     0.00020270    0.00000000   -0.00000000
     atom   35 type  2   force =     0.00020270    0.00000000    0.00000000
     atom   36 type  2   force =     0.00020440    0.00000000    0.00000000
     atom   37 type  2   force =    -0.00020262    0.00000000    0.00000000
     atom   38 type  2   force =    -0.00020270    0.00000000    0.00000000
     atom   39 type  2   force =    -0.00020270    0.00000000    0.00000000
     atom   40 type  2   force =    -0.00020440    0.00000000   -0.00000000
     The core correction contribution to forces
     atom    1 type  1   force =    -0.00000008   -0.00000008   -0.00000008
     atom    2 type  1   force =    -0.00000008   -0.00000008    0.00000008
     atom    3 type  1   force =    -0.00000008    0.00000008   -0.00000008
     atom    4 type  1   force =    -0.00000008    0.00000008    0.00000008
     atom    5 type  1   force =     0.00000008   -0.00000008   -0.00000008
     atom    6 type  1   force =     0.00000008   -0.00000008    0.00000008
     atom    7 type  1   force =     0.00000008    0.00000008   -0.00000008
     atom    8 type  1   force =     0.00000008    0.00000008    0.00000008
     atom    9 type  3   force =     0.00000000    0.00000000    0.00000000
     atom   10 type  3   force =    -0.00000000   -0.00000000    0.00000000
     atom   11 type  3   force =    -0.00000000    0.00000000   -0.00000000
     atom   12 type  3   force =     0.00000000   -0.00000000   -0.00000000
     atom   13 type  3   force =     0.00000000   -0.00000000   -0.00000000
     atom   14 type  3   force =    -0.00000000    0.00000000   -0.00000000
     atom   15 type  3   force =    -0.00000000   -0.00000000    0.00000000
     atom   16 type  3   force =     0.00000000    0.00000000    0.00000000
     atom   17 type  2   force =     0.00000000    0.00000000    0.00000053
     atom   18 type  2   force =     0.00000000    0.00000000   -0.00000053
     atom   19 type  2   force =     0.00000000   -0.00000000    0.00000026
     atom   20 type  2   force =     0.00000000   -0.00000000   -0.00000026
     atom   21 type  2   force =    -0.00000000    0.00000000    0.00000026
     atom   22 type  2   force =    -0.00000000    0.00000000   -0.00000026
     atom   23 type  2   force =    -0.00000000   -0.00000000    0.00000040
     atom   24 type  2   force =     0.00000000    0.00000000   -0.00000040
     atom   25 type  2   force =     0.00000000    0.00000053    0.00000000
     atom   26 type  2   force =     0.00000000    0.00000026   -0.00000000
     atom   27 type  2   force =     0.00000000   -0.00000053    0.00000000
     atom   28 type  2   force =     0.00000000   -0.00000026   -0.00000000
     atom   29 type  2   force =    -0.00000000    0.00000026    0.00000000
     atom   30 type  2   force =    -0.00000000    0.00000040   -0.00000000
     atom   31 type  2   force =    -0.00000000   -0.00000026    0.00000000
     atom   32 type  2   force =     0.00000000   -0.00000040    0.00000000
     atom   33 type  2   force =     0.00000053    0.00000000    0.00000000
     atom   34 type  2   force =     0.00000026    0.00000000   -0.00000000
     atom   35 type  2   force =     0.00000026   -0.00000000    0.00000000
     atom   36 type  2   force =     0.00000040   -0.00000000   -0.00000000
     atom   37 type  2   force =    -0.00000053    0.00000000    0.00000000
     atom   38 type  2   force =    -0.00000026    0.00000000   -0.00000000
     atom   39 type  2   force =    -0.00000026   -0.00000000    0.00000000
     atom   40 type  2   force =    -0.00000040    0.00000000    0.00000000
     The Hubbard contrib.    to forces
     atom    1 type  1   force =     0.00000000    0.00000000    0.00000000
     atom    2 type  1   force =     0.00000000    0.00000000    0.00000000
     atom    3 type  1   force =     0.00000000    0.00000000    0.00000000
     atom    4 type  1   force =     0.00000000    0.00000000    0.00000000
     atom    5 type  1   force =     0.00000000    0.00000000    0.00000000
     atom    6 type  1   force =     0.00000000    0.00000000    0.00000000
     atom    7 type  1   force =     0.00000000    0.00000000    0.00000000
     atom    8 type  1   force =     0.00000000    0.00000000    0.00000000
     atom    9 type  3   force =     0.00000000    0.00000000    0.00000000
     atom   10 type  3   force =     0.00000000    0.00000000    0.00000000
     atom   11 type  3   force =     0.00000000    0.00000000    0.00000000
     atom   12 type  3   force =     0.00000000    0.00000000    0.00000000
     atom   13 type  3   force =     0.00000000    0.00000000    0.00000000
     atom   14 type  3   force =     0.00000000    0.00000000    0.00000000
     atom   15 type  3   force =     0.00000000    0.00000000    0.00000000
     atom   16 type  3   force =     0.00000000    0.00000000    0.00000000
     atom   17 type  2   force =     0.00000000    0.00000000    0.00000000
     atom   18 type  2   force =     0.00000000    0.00000000    0.00000000
     atom   19 type  2   force =     0.00000000    0.00000000    0.00000000
     atom   20 type  2   force =     0.00000000    0.00000000    0.00000000
     atom   21 type  2   force =     0.00000000    0.00000000    0.00000000
     atom   22 type  2   force =     0.00000000    0.00000000    0.00000000
     atom   23 type  2   force =     0.00000000    0.00000000    0.00000000
     atom   24 type  2   force =     0.00000000    0.00000000    0.00000000
     atom   25 type  2   force =     0.00000000    0.00000000    0.00000000
     atom   26 type  2   force =     0.00000000    0.00000000    0.00000000
     atom   27 type  2   force =     0.00000000    0.00000000    0.00000000
     atom   28 type  2   force =     0.00000000    0.00000000    0.00000000
     atom   29 type  2   force =     0.00000000    0.00000000    0.00000000
     atom   30 type  2   force =     0.00000000    0.00000000    0.00000000
     atom   31 type  2   force =     0.00000000    0.00000000    0.00000000
     atom   32 type  2   force =     0.00000000    0.00000000    0.00000000
     atom   33 type  2   force =     0.00000000    0.00000000    0.00000000
     atom   34 type  2   force =     0.00000000    0.00000000    0.00000000
     atom   35 type  2   force =     0.00000000    0.00000000    0.00000000
     atom   36 type  2   force =     0.00000000    0.00000000    0.00000000
     atom   37 type  2   force =     0.00000000    0.00000000    0.00000000
     atom   38 type  2   force =     0.00000000    0.00000000    0.00000000
     atom   39 type  2   force =     0.00000000    0.00000000    0.00000000
     atom   40 type  2   force =     0.00000000    0.00000000    0.00000000
     The SCF correction term to forces
     atom    1 type  1   force =     0.00000115    0.00000115    0.00000115
     atom    2 type  1   force =     0.00000115    0.00000115   -0.00000115
     atom    3 type  1   force =     0.00000115   -0.00000115    0.00000115
     atom    4 type  1   force =     0.00000115   -0.00000115   -0.00000115
     atom    5 type  1   force =    -0.00000115    0.00000115    0.00000115
     atom    6 type  1   force =    -0.00000115    0.00000115   -0.00000115
     atom    7 type  1   force =    -0.00000115   -0.00000115    0.00000115
     atom    8 type  1   force =    -0.00000115   -0.00000115   -0.00000115
     atom    9 type  3   force =    -0.00000000   -0.00000000    0.00000000
     atom   10 type  3   force =     0.00000000   -0.00000000   -0.00000000
     atom   11 type  3   force =     0.00000000   -0.00000000    0.00000000
     atom   12 type  3   force =    -0.00000000   -0.00000000   -0.00000000
     atom   13 type  3   force =    -0.00000000   -0.00000000    0.00000000
     atom   14 type  3   force =     0.00000000   -0.00000000   -0.00000000
     atom   15 type  3   force =     0.00000000   -0.00000000    0.00000000
     atom   16 type  3   force =    -0.00000000   -0.00000000   -0.00000000
     atom   17 type  2   force =    -0.00000000    0.00000000   -0.00000040
     atom   18 type  2   force =    -0.00000000    0.00000000    0.00000040
     atom   19 type  2   force =    -0.00000000    0.00000000    0.00000227
     atom   20 type  2   force =     0.00000000   -0.00000000   -0.00000227
     atom   21 type  2   force =    -0.00000000    0.00000000    0.00000227
     atom   22 type  2   force =    -0.00000000    0.00000000   -0.00000227
     atom   23 type  2   force =    -0.00000000   -0.00000000    0.00000060
     atom   24 type  2   force =     0.00000000   -0.00000000   -0.00000060
     atom   25 type  2   force =    -0.00000000   -0.00000040   -0.00000000
     atom   26 type  2   force =     0.00000000    0.00000227    0.00000000
     atom   27 type  2   force =    -0.00000000    0.00000040   -0.00000000
     atom   28 type  2   force =     0.00000000   -0.00000227    0.00000000
     atom   29 type  2   force =    -0.00000000    0.00000227   -0.00000000
     atom   30 type  2   force =    -0.00000000    0.00000060    0.00000000
     atom   31 type  2   force =     0.00000000   -0.00000227   -0.00000000
     atom   32 type  2   force =    -0.00000000   -0.00000060    0.00000000
     atom   33 type  2   force =    -0.00000040    0.00000000   -0.00000000
     atom   34 type  2   force =     0.00000227   -0.00000000    0.00000000
     atom   35 type  2   force =     0.00000227   -0.00000000   -0.00000000
     atom   36 type  2   force =     0.00000060    0.00000000    0.00000000
     atom   37 type  2   force =     0.00000040    0.00000000   -0.00000000
     atom   38 type  2   force =    -0.00000227   -0.00000000    0.00000000
     atom   39 type  2   force =    -0.00000227    0.00000000   -0.00000000
     atom   40 type  2   force =    -0.00000060    0.00000000    0.00000000

     Total force =     0.000021     Total SCF correction =     0.000010
     SCF correction compared to forces is large: reduce conv_thr to get better values


     Computing stress (Cartesian axis) and pressure

          total   stress  (Ry/bohr**3)                   (kbar)     P=       -1.95
  -0.00001328   0.00000000   0.00000000           -1.95        0.00        0.00
   0.00000000  -0.00001328   0.00000000            0.00       -1.95        0.00
   0.00000000   0.00000000  -0.00001328            0.00        0.00       -1.95

     kinetic stress (kbar)   3450.68      0.00      0.00
                                0.00   3450.68      0.00
                                0.00      0.00   3450.68

     local   stress (kbar)   -368.81     -0.00     -0.00
                               -0.00   -368.81     -0.00
                               -0.00     -0.00   -368.81

     nonloc. stress (kbar)    893.00      0.00      0.00
                                0.00    893.00      0.00
                                0.00      0.00    893.00

     hartree stress (kbar)   1917.81     -0.00      0.00
                               -0.00   1917.81     -0.00
                                0.00     -0.00   1917.81

     exc-cor stress (kbar)  12007.57      0.00      0.00
                                0.00  12007.57      0.00
                                0.00      0.00  12007.57

     corecor stress (kbar) -13606.18     -0.00      0.00
                               -0.00 -13606.18     -0.00
                                0.00     -0.00 -13606.18

     ewald   stress (kbar)  -4296.03     -0.00     -0.00
                               -0.00  -4296.03     -0.00
                               -0.00     -0.00  -4296.03

     hubbard stress (kbar)      0.00      0.00      0.00
                                0.00      0.00      0.00
                                0.00      0.00      0.00

     DFT-D   stress (kbar)      0.00      0.00      0.00
                                0.00      0.00      0.00
                                0.00      0.00      0.00

     XDM     stress (kbar)      0.00      0.00      0.00
                                0.00      0.00      0.00
                                0.00      0.00      0.00

     dft-nl  stress (kbar)      0.00      0.00      0.00
                                0.00      0.00      0.00
                                0.00      0.00      0.00

     TS-vdW  stress (kbar)      0.00      0.00      0.00
                                0.00      0.00      0.00
                                0.00      0.00      0.00



     Writing output data file ../../out/aiida.save/

     init_run     :   2679.67s CPU   2714.61s WALL (       1 calls)
     electrons    : 145983.47s CPU 147513.91s WALL (       1 calls)
     forces       :   1594.74s CPU   1605.51s WALL (       1 calls)
     stress       :   1874.47s CPU   1887.87s WALL (       1 calls)

     Called by init_run:
     wfcinit      :   2672.44s CPU   2706.76s WALL (       1 calls)
     wfcinit:atom :      2.27s CPU      3.40s WALL (      56 calls)
     wfcinit:wfcr :   2655.44s CPU   2687.30s WALL (      56 calls)
     potinit      :      1.62s CPU      1.72s WALL (       1 calls)
     hinit0       :      0.47s CPU      0.48s WALL (       1 calls)

     Called by electrons:
     c_bands      : 132278.52s CPU 133636.00s WALL (      21 calls)
     sum_band     :  13609.61s CPU  13776.02s WALL (      21 calls)
     v_of_rho     :      7.28s CPU      7.64s WALL (      21 calls)
     v_h          :      0.83s CPU      0.87s WALL (      21 calls)
     v_xc         :      7.17s CPU      7.51s WALL (      23 calls)
     newd         :     67.96s CPU     74.42s WALL (      21 calls)
     PAW_pot      :     23.05s CPU     23.14s WALL (      21 calls)
     mix_rho      :      3.12s CPU      3.21s WALL (      21 calls)

     Called by c_bands:
     init_us_2    :    223.81s CPU    226.44s WALL (    2520 calls)
     cegterg      : 131752.25s CPU 133104.73s WALL (    1176 calls)

     Called by sum_band:
     sum_band:wei :      0.20s CPU      0.20s WALL (      21 calls)
     sum_band:loo :  13485.26s CPU  13643.81s WALL (      21 calls)
     sum_band:buf :     56.61s CPU     57.11s WALL (    1176 calls)
     sum_band:ini :    105.57s CPU    106.60s WALL (    1176 calls)
     sum_band:cal :   9237.27s CPU   9299.89s WALL (    1176 calls)
     sum_band:bec :      3.47s CPU      3.51s WALL (    1176 calls)
     addusdens    :    120.83s CPU    128.55s WALL (      21 calls)
     addusd:skk   :      0.83s CPU      1.16s WALL (      63 calls)
     addusd:dgemm :     70.67s CPU     76.51s WALL (      63 calls)
     addusd:qvan2 :     48.37s CPU     48.71s WALL (      63 calls)

     Called by *egterg:
     cdiaghg      :    929.37s CPU    940.10s WALL (    5669 calls)
     cegterg:over :  14681.11s CPU  14762.96s WALL (    4549 calls)
     cegterg:upda :   7684.02s CPU   7745.62s WALL (    4549 calls)
     cegterg:last :  18121.42s CPU  18222.59s WALL (    2271 calls)
     cdiaghg:chol :     54.78s CPU     55.18s WALL (    5669 calls)
     cdiaghg:inve :      4.34s CPU      4.40s WALL (    5669 calls)
     cdiaghg:para :    318.71s CPU    323.95s WALL (   11338 calls)
     h_psi        :  64691.97s CPU  65548.84s WALL (    5781 calls)
     s_psi        :  23126.37s CPU  23293.11s WALL (    5781 calls)
     g_psi        :     73.09s CPU     73.43s WALL (    4549 calls)

     Called by h_psi:
     h_psi:calbec :  23303.05s CPU  23474.47s WALL (    5781 calls)
     vloc_psi     :  18044.53s CPU  18531.94s WALL (    5781 calls)
     add_vuspsi   :  23293.38s CPU  23463.72s WALL (    5781 calls)

     General routines
     calbec       :  34548.11s CPU  34795.18s WALL (    7237 calls)
     fft          :      6.33s CPU      6.69s WALL (     257 calls)
     ffts         :      0.73s CPU      0.78s WALL (      21 calls)
     fftw         :  17336.25s CPU  17778.80s WALL ( 1503376 calls)

     Parallel routines
     fft_scatt_xy :   3750.95s CPU   3811.82s WALL ( 1503654 calls)
     fft_scatt_yz :   2859.44s CPU   3066.42s WALL ( 1503654 calls)

     PAW routines
     PAW_pot      :     23.05s CPU     23.14s WALL (      21 calls)
     PAW_symme    :      0.07s CPU      0.07s WALL (      42 calls)

     PWSCF        :   1d18h15m CPU   1d18h42m WALL


   This run was terminated on:  23:10:12  12Apr2024            

=------------------------------------------------------------------------------=
   JOB DONE.
=------------------------------------------------------------------------------=
