### Running on host: fes33

     Program PWSCF v.6.7MaX starts on  3Apr2024 at 16:45:45 

     This program is part of the open-source Quantum ESPRESSO suite
     for quantum simulation of materials; please cite
         "P. Giannozzi et al., J. Phys.:Condens. Matter 21 395502 (2009);
         "P. Giannozzi et al., J. Phys.:Condens. Matter 29 465901 (2017);
          URL http://www.quantum-espresso.org", 
     in publications or presentations arising from this work. More details at
     http://www.quantum-espresso.org/quote

     Parallel version (MPI), running on     3 processors

     MPI processes distributed on     1 nodes
     R & G space division:  proc/nbgrp/npool/nimage =       3
     Reading input from pwscf_kpoints-3.in

     Current dimensions of program PWSCF are:
     Max number of different atomic species (ntypx) = 10
     Max number of k-points (npk) =  40000
     Max angular momentum in pseudopotentials (lmaxx) =  3
     file Pb.pbe-dn-kjpaw_psl.0.2.2.UPF: wavefunction(s)  6S renormalized

     Subspace diagonalization in iterative solution of the eigenvalue problem:
     a serial algorithm will be used

     Found symmetry operation: I + (  0.0000  0.0000  0.5000)
     This is a supercell, fractional translations are disabled
     Message from routine setup:
     using ibrav=0 with symmetry is DISCOURAGED, use correct ibrav instead

     Parallelization info
     --------------------
     sticks:   dense  smooth     PW     G-vecs:    dense   smooth      PW
     Min        2471    2471    646               159923   159923   21409
     Max        2475    2475    648               159923   159923   21410
     Sum        7417    7417   1941               479769   479769   64229



     bravais-lattice index     =            0
     lattice parameter (alat)  =      24.1188  a.u.
     unit-cell volume          =   14030.3801 (a.u.)^3
     number of atoms/cell      =           40
     number of atomic types    =            3
     number of electrons       =       352.00
     number of Kohn-Sham states=          211
     kinetic-energy cutoff     =      40.0000  Ry
     charge density cutoff     =     160.0000  Ry
     scf convergence threshold =      8.0E-09
     mixing beta               =       0.4000
     number of iterations used =            8  plain     mixing
     Exchange-correlation= SLA  PW   PBX  PBC
                           (   1   4   3   4   0   0   0)

     celldm(1)=  24.118843  celldm(2)=   0.000000  celldm(3)=   0.000000
     celldm(4)=   0.000000  celldm(5)=   0.000000  celldm(6)=   0.000000

     crystal axes: (cart. coord. in units of alat)
               a(1) = (   1.000000   0.000000   0.000000 )  
               a(2) = (   0.000000   1.000000   0.000000 )  
               a(3) = (   0.000000   0.000000   1.000000 )  

     reciprocal axes: (cart. coord. in units 2 pi/alat)
               b(1) = (  1.000000  0.000000  0.000000 )  
               b(2) = (  0.000000  1.000000  0.000000 )  
               b(3) = (  0.000000  0.000000  1.000000 )  


     PseudoPot. # 1 for Cs read from file:
     ../../pseudo/Cs_pbe_v1.uspp.F.UPF
     MD5 check sum: 3476d69cb178dfad3ffaa59df4e07ca4
     Pseudo is Ultrasoft + core correction, Zval =  9.0
     Generated by new atomic code, or converted to UPF format
     Using radial grid of  905 points,  6 beta functions with: 
                l(1) =   0
                l(2) =   0
                l(3) =   1
                l(4) =   1
                l(5) =   2
                l(6) =   2
     Q(r) pseudized with  6 coefficients,  rinner =    1.500   1.500   1.500
                                                       1.500   1.500

     PseudoPot. # 2 for I  read from file:
     ../../pseudo/I.pbe-n-kjpaw_psl.0.2.UPF
     MD5 check sum: d4ef18d9c8f18dc85e5843bca1e50dc0
     Pseudo is Projector augmented-wave + core cor, Zval =  7.0
     Generated using "atomic" code by A. Dal Corso  v.5.0.99 svn rev. 10869
     Shape of augmentation charge: PSQ
     Using radial grid of 1247 points,  4 beta functions with: 
                l(1) =   0
                l(2) =   0
                l(3) =   1
                l(4) =   1
     Q(r) pseudized with 0 coefficients 


     PseudoPot. # 3 for Pb read from file:
     ../../pseudo/Pb.pbe-dn-kjpaw_psl.0.2.2.UPF
     MD5 check sum: 9d431e6316058b74ade52399a6cf67da
     Pseudo is Projector augmented-wave + core cor, Zval = 14.0
     Generated using "atomic" code by A. Dal Corso  v.5.0.99 svn rev. 10869
     Shape of augmentation charge: PSQ
     Using radial grid of 1281 points,  6 beta functions with: 
                l(1) =   0
                l(2) =   0
                l(3) =   1
                l(4) =   1
                l(5) =   2
                l(6) =   2
     Q(r) pseudized with 0 coefficients 


     atomic species   valence    mass     pseudopotential
        Cs             9.00   132.90545     Cs( 1.00)
        I              7.00   126.90447     I ( 1.00)
        Pb            14.00   207.20000     Pb( 1.00)

     48 Sym. Ops., with inversion, found


                                    s                        frac. trans.

      isym =  1     identity                                     

 cryst.   s( 1) = (     1          0          0      )
                  (     0          1          0      )
                  (     0          0          1      )

 cart.    s( 1) = (  1.0000000  0.0000000  0.0000000 )
                  (  0.0000000  1.0000000  0.0000000 )
                  (  0.0000000  0.0000000  1.0000000 )


      isym =  2     180 deg rotation - cart. axis [0,0,1]        

 cryst.   s( 2) = (    -1          0          0      )
                  (     0         -1          0      )
                  (     0          0          1      )

 cart.    s( 2) = ( -1.0000000  0.0000000  0.0000000 )
                  (  0.0000000 -1.0000000  0.0000000 )
                  (  0.0000000  0.0000000  1.0000000 )


      isym =  3     180 deg rotation - cart. axis [0,1,0]        

 cryst.   s( 3) = (    -1          0          0      )
                  (     0          1          0      )
                  (     0          0         -1      )

 cart.    s( 3) = ( -1.0000000  0.0000000  0.0000000 )
                  (  0.0000000  1.0000000  0.0000000 )
                  (  0.0000000  0.0000000 -1.0000000 )


      isym =  4     180 deg rotation - cart. axis [1,0,0]        

 cryst.   s( 4) = (     1          0          0      )
                  (     0         -1          0      )
                  (     0          0         -1      )

 cart.    s( 4) = (  1.0000000  0.0000000  0.0000000 )
                  (  0.0000000 -1.0000000  0.0000000 )
                  (  0.0000000  0.0000000 -1.0000000 )


      isym =  5     180 deg rotation - cart. axis [1,1,0]        

 cryst.   s( 5) = (     0          1          0      )
                  (     1          0          0      )
                  (     0          0         -1      )

 cart.    s( 5) = (  0.0000000  1.0000000  0.0000000 )
                  (  1.0000000  0.0000000  0.0000000 )
                  (  0.0000000  0.0000000 -1.0000000 )


      isym =  6     180 deg rotation - cart. axis [1,-1,0]       

 cryst.   s( 6) = (     0         -1          0      )
                  (    -1          0          0      )
                  (     0          0         -1      )

 cart.    s( 6) = (  0.0000000 -1.0000000  0.0000000 )
                  ( -1.0000000  0.0000000  0.0000000 )
                  (  0.0000000  0.0000000 -1.0000000 )


      isym =  7      90 deg rotation - cart. axis [0,0,-1]       

 cryst.   s( 7) = (     0         -1          0      )
                  (     1          0          0      )
                  (     0          0          1      )

 cart.    s( 7) = (  0.0000000  1.0000000  0.0000000 )
                  ( -1.0000000  0.0000000  0.0000000 )
                  (  0.0000000  0.0000000  1.0000000 )


      isym =  8      90 deg rotation - cart. axis [0,0,1]        

 cryst.   s( 8) = (     0          1          0      )
                  (    -1          0          0      )
                  (     0          0          1      )

 cart.    s( 8) = (  0.0000000 -1.0000000  0.0000000 )
                  (  1.0000000  0.0000000  0.0000000 )
                  (  0.0000000  0.0000000  1.0000000 )


      isym =  9     180 deg rotation - cart. axis [1,0,1]        

 cryst.   s( 9) = (     0          0          1      )
                  (     0         -1          0      )
                  (     1          0          0      )

 cart.    s( 9) = (  0.0000000  0.0000000  1.0000000 )
                  (  0.0000000 -1.0000000  0.0000000 )
                  (  1.0000000  0.0000000  0.0000000 )


      isym = 10     180 deg rotation - cart. axis [-1,0,1]       

 cryst.   s(10) = (     0          0         -1      )
                  (     0         -1          0      )
                  (    -1          0          0      )

 cart.    s(10) = (  0.0000000  0.0000000 -1.0000000 )
                  (  0.0000000 -1.0000000  0.0000000 )
                  ( -1.0000000  0.0000000  0.0000000 )


      isym = 11      90 deg rotation - cart. axis [0,1,0]        

 cryst.   s(11) = (     0          0         -1      )
                  (     0          1          0      )
                  (     1          0          0      )

 cart.    s(11) = (  0.0000000  0.0000000  1.0000000 )
                  (  0.0000000  1.0000000  0.0000000 )
                  ( -1.0000000  0.0000000  0.0000000 )


      isym = 12      90 deg rotation - cart. axis [0,-1,0]       

 cryst.   s(12) = (     0          0          1      )
                  (     0          1          0      )
                  (    -1          0          0      )

 cart.    s(12) = (  0.0000000  0.0000000 -1.0000000 )
                  (  0.0000000  1.0000000  0.0000000 )
                  (  1.0000000  0.0000000  0.0000000 )


      isym = 13     180 deg rotation - cart. axis [0,1,1]        

 cryst.   s(13) = (    -1          0          0      )
                  (     0          0          1      )
                  (     0          1          0      )

 cart.    s(13) = ( -1.0000000  0.0000000  0.0000000 )
                  (  0.0000000  0.0000000  1.0000000 )
                  (  0.0000000  1.0000000  0.0000000 )


      isym = 14     180 deg rotation - cart. axis [0,1,-1]       

 cryst.   s(14) = (    -1          0          0      )
                  (     0          0         -1      )
                  (     0         -1          0      )

 cart.    s(14) = ( -1.0000000  0.0000000  0.0000000 )
                  (  0.0000000  0.0000000 -1.0000000 )
                  (  0.0000000 -1.0000000  0.0000000 )


      isym = 15      90 deg rotation - cart. axis [-1,0,0]       

 cryst.   s(15) = (     1          0          0      )
                  (     0          0         -1      )
                  (     0          1          0      )

 cart.    s(15) = (  1.0000000  0.0000000  0.0000000 )
                  (  0.0000000  0.0000000  1.0000000 )
                  (  0.0000000 -1.0000000  0.0000000 )


      isym = 16      90 deg rotation - cart. axis [1,0,0]        

 cryst.   s(16) = (     1          0          0      )
                  (     0          0          1      )
                  (     0         -1          0      )

 cart.    s(16) = (  1.0000000  0.0000000  0.0000000 )
                  (  0.0000000  0.0000000 -1.0000000 )
                  (  0.0000000  1.0000000  0.0000000 )


      isym = 17     120 deg rotation - cart. axis [-1,-1,-1]     

 cryst.   s(17) = (     0          0          1      )
                  (     1          0          0      )
                  (     0          1          0      )

 cart.    s(17) = (  0.0000000  1.0000000  0.0000000 )
                  (  0.0000000  0.0000000  1.0000000 )
                  (  1.0000000  0.0000000  0.0000000 )


      isym = 18     120 deg rotation - cart. axis [-1,1,1]       

 cryst.   s(18) = (     0          0         -1      )
                  (    -1          0          0      )
                  (     0          1          0      )

 cart.    s(18) = (  0.0000000 -1.0000000  0.0000000 )
                  (  0.0000000  0.0000000  1.0000000 )
                  ( -1.0000000  0.0000000  0.0000000 )


      isym = 19     120 deg rotation - cart. axis [1,1,-1]       

 cryst.   s(19) = (     0          0         -1      )
                  (     1          0          0      )
                  (     0         -1          0      )

 cart.    s(19) = (  0.0000000  1.0000000  0.0000000 )
                  (  0.0000000  0.0000000 -1.0000000 )
                  ( -1.0000000  0.0000000  0.0000000 )


      isym = 20     120 deg rotation - cart. axis [1,-1,1]       

 cryst.   s(20) = (     0          0          1      )
                  (    -1          0          0      )
                  (     0         -1          0      )

 cart.    s(20) = (  0.0000000 -1.0000000  0.0000000 )
                  (  0.0000000  0.0000000 -1.0000000 )
                  (  1.0000000  0.0000000  0.0000000 )


      isym = 21     120 deg rotation - cart. axis [1,1,1]        

 cryst.   s(21) = (     0          1          0      )
                  (     0          0          1      )
                  (     1          0          0      )

 cart.    s(21) = (  0.0000000  0.0000000  1.0000000 )
                  (  1.0000000  0.0000000  0.0000000 )
                  (  0.0000000  1.0000000  0.0000000 )


      isym = 22     120 deg rotation - cart. axis [-1,1,-1]      

 cryst.   s(22) = (     0         -1          0      )
                  (     0          0         -1      )
                  (     1          0          0      )

 cart.    s(22) = (  0.0000000  0.0000000  1.0000000 )
                  ( -1.0000000  0.0000000  0.0000000 )
                  (  0.0000000 -1.0000000  0.0000000 )


      isym = 23     120 deg rotation - cart. axis [1,-1,-1]      

 cryst.   s(23) = (     0         -1          0      )
                  (     0          0          1      )
                  (    -1          0          0      )

 cart.    s(23) = (  0.0000000  0.0000000 -1.0000000 )
                  ( -1.0000000  0.0000000  0.0000000 )
                  (  0.0000000  1.0000000  0.0000000 )


      isym = 24     120 deg rotation - cart. axis [-1,-1,1]      

 cryst.   s(24) = (     0          1          0      )
                  (     0          0         -1      )
                  (    -1          0          0      )

 cart.    s(24) = (  0.0000000  0.0000000 -1.0000000 )
                  (  1.0000000  0.0000000  0.0000000 )
                  (  0.0000000 -1.0000000  0.0000000 )


      isym = 25     inversion                                    

 cryst.   s(25) = (    -1          0          0      )
                  (     0         -1          0      )
                  (     0          0         -1      )

 cart.    s(25) = ( -1.0000000  0.0000000  0.0000000 )
                  (  0.0000000 -1.0000000  0.0000000 )
                  (  0.0000000  0.0000000 -1.0000000 )


      isym = 26     inv. 180 deg rotation - cart. axis [0,0,1]   

 cryst.   s(26) = (     1          0          0      )
                  (     0          1          0      )
                  (     0          0         -1      )

 cart.    s(26) = (  1.0000000  0.0000000  0.0000000 )
                  (  0.0000000  1.0000000  0.0000000 )
                  (  0.0000000  0.0000000 -1.0000000 )


      isym = 27     inv. 180 deg rotation - cart. axis [0,1,0]   

 cryst.   s(27) = (     1          0          0      )
                  (     0         -1          0      )
                  (     0          0          1      )

 cart.    s(27) = (  1.0000000  0.0000000  0.0000000 )
                  (  0.0000000 -1.0000000  0.0000000 )
                  (  0.0000000  0.0000000  1.0000000 )


      isym = 28     inv. 180 deg rotation - cart. axis [1,0,0]   

 cryst.   s(28) = (    -1          0          0      )
                  (     0          1          0      )
                  (     0          0          1      )

 cart.    s(28) = ( -1.0000000  0.0000000  0.0000000 )
                  (  0.0000000  1.0000000  0.0000000 )
                  (  0.0000000  0.0000000  1.0000000 )


      isym = 29     inv. 180 deg rotation - cart. axis [1,1,0]   

 cryst.   s(29) = (     0         -1          0      )
                  (    -1          0          0      )
                  (     0          0          1      )

 cart.    s(29) = (  0.0000000 -1.0000000  0.0000000 )
                  ( -1.0000000  0.0000000  0.0000000 )
                  (  0.0000000  0.0000000  1.0000000 )


      isym = 30     inv. 180 deg rotation - cart. axis [1,-1,0]  

 cryst.   s(30) = (     0          1          0      )
                  (     1          0          0      )
                  (     0          0          1      )

 cart.    s(30) = (  0.0000000  1.0000000  0.0000000 )
                  (  1.0000000  0.0000000  0.0000000 )
                  (  0.0000000  0.0000000  1.0000000 )


      isym = 31     inv.  90 deg rotation - cart. axis [0,0,-1]  

 cryst.   s(31) = (     0          1          0      )
                  (    -1          0          0      )
                  (     0          0         -1      )

 cart.    s(31) = (  0.0000000 -1.0000000  0.0000000 )
                  (  1.0000000  0.0000000  0.0000000 )
                  (  0.0000000  0.0000000 -1.0000000 )


      isym = 32     inv.  90 deg rotation - cart. axis [0,0,1]   

 cryst.   s(32) = (     0         -1          0      )
                  (     1          0          0      )
                  (     0          0         -1      )

 cart.    s(32) = (  0.0000000  1.0000000  0.0000000 )
                  ( -1.0000000  0.0000000  0.0000000 )
                  (  0.0000000  0.0000000 -1.0000000 )


      isym = 33     inv. 180 deg rotation - cart. axis [1,0,1]   

 cryst.   s(33) = (     0          0         -1      )
                  (     0          1          0      )
                  (    -1          0          0      )

 cart.    s(33) = (  0.0000000  0.0000000 -1.0000000 )
                  (  0.0000000  1.0000000  0.0000000 )
                  ( -1.0000000  0.0000000  0.0000000 )


      isym = 34     inv. 180 deg rotation - cart. axis [-1,0,1]  

 cryst.   s(34) = (     0          0          1      )
                  (     0          1          0      )
                  (     1          0          0      )

 cart.    s(34) = (  0.0000000  0.0000000  1.0000000 )
                  (  0.0000000  1.0000000  0.0000000 )
                  (  1.0000000  0.0000000  0.0000000 )


      isym = 35     inv.  90 deg rotation - cart. axis [0,1,0]   

 cryst.   s(35) = (     0          0          1      )
                  (     0         -1          0      )
                  (    -1          0          0      )

 cart.    s(35) = (  0.0000000  0.0000000 -1.0000000 )
                  (  0.0000000 -1.0000000  0.0000000 )
                  (  1.0000000  0.0000000  0.0000000 )


      isym = 36     inv.  90 deg rotation - cart. axis [0,-1,0]  

 cryst.   s(36) = (     0          0         -1      )
                  (     0         -1          0      )
                  (     1          0          0      )

 cart.    s(36) = (  0.0000000  0.0000000  1.0000000 )
                  (  0.0000000 -1.0000000  0.0000000 )
                  ( -1.0000000  0.0000000  0.0000000 )


      isym = 37     inv. 180 deg rotation - cart. axis [0,1,1]   

 cryst.   s(37) = (     1          0          0      )
                  (     0          0         -1      )
                  (     0         -1          0      )

 cart.    s(37) = (  1.0000000  0.0000000  0.0000000 )
                  (  0.0000000  0.0000000 -1.0000000 )
                  (  0.0000000 -1.0000000  0.0000000 )


      isym = 38     inv. 180 deg rotation - cart. axis [0,1,-1]  

 cryst.   s(38) = (     1          0          0      )
                  (     0          0          1      )
                  (     0          1          0      )

 cart.    s(38) = (  1.0000000  0.0000000  0.0000000 )
                  (  0.0000000  0.0000000  1.0000000 )
                  (  0.0000000  1.0000000  0.0000000 )


      isym = 39     inv.  90 deg rotation - cart. axis [-1,0,0]  

 cryst.   s(39) = (    -1          0          0      )
                  (     0          0          1      )
                  (     0         -1          0      )

 cart.    s(39) = ( -1.0000000  0.0000000  0.0000000 )
                  (  0.0000000  0.0000000 -1.0000000 )
                  (  0.0000000  1.0000000  0.0000000 )


      isym = 40     inv.  90 deg rotation - cart. axis [1,0,0]   

 cryst.   s(40) = (    -1          0          0      )
                  (     0          0         -1      )
                  (     0          1          0      )

 cart.    s(40) = ( -1.0000000  0.0000000  0.0000000 )
                  (  0.0000000  0.0000000  1.0000000 )
                  (  0.0000000 -1.0000000  0.0000000 )


      isym = 41     inv. 120 deg rotation - cart. axis [-1,-1,-1]

 cryst.   s(41) = (     0          0         -1      )
                  (    -1          0          0      )
                  (     0         -1          0      )

 cart.    s(41) = (  0.0000000 -1.0000000  0.0000000 )
                  (  0.0000000  0.0000000 -1.0000000 )
                  ( -1.0000000  0.0000000  0.0000000 )


      isym = 42     inv. 120 deg rotation - cart. axis [-1,1,1]  

 cryst.   s(42) = (     0          0          1      )
                  (     1          0          0      )
                  (     0         -1          0      )

 cart.    s(42) = (  0.0000000  1.0000000  0.0000000 )
                  (  0.0000000  0.0000000 -1.0000000 )
                  (  1.0000000  0.0000000  0.0000000 )


      isym = 43     inv. 120 deg rotation - cart. axis [1,1,-1]  

 cryst.   s(43) = (     0          0          1      )
                  (    -1          0          0      )
                  (     0          1          0      )

 cart.    s(43) = (  0.0000000 -1.0000000  0.0000000 )
                  (  0.0000000  0.0000000  1.0000000 )
                  (  1.0000000  0.0000000  0.0000000 )


      isym = 44     inv. 120 deg rotation - cart. axis [1,-1,1]  

 cryst.   s(44) = (     0          0         -1      )
                  (     1          0          0      )
                  (     0          1          0      )

 cart.    s(44) = (  0.0000000  1.0000000  0.0000000 )
                  (  0.0000000  0.0000000  1.0000000 )
                  ( -1.0000000  0.0000000  0.0000000 )


      isym = 45     inv. 120 deg rotation - cart. axis [1,1,1]   

 cryst.   s(45) = (     0         -1          0      )
                  (     0          0         -1      )
                  (    -1          0          0      )

 cart.    s(45) = (  0.0000000  0.0000000 -1.0000000 )
                  ( -1.0000000  0.0000000  0.0000000 )
                  (  0.0000000 -1.0000000  0.0000000 )


      isym = 46     inv. 120 deg rotation - cart. axis [-1,1,-1] 

 cryst.   s(46) = (     0          1          0      )
                  (     0          0          1      )
                  (    -1          0          0      )

 cart.    s(46) = (  0.0000000  0.0000000 -1.0000000 )
                  (  1.0000000  0.0000000  0.0000000 )
                  (  0.0000000  1.0000000  0.0000000 )


      isym = 47     inv. 120 deg rotation - cart. axis [1,-1,-1] 

 cryst.   s(47) = (     0          1          0      )
                  (     0          0         -1      )
                  (     1          0          0      )

 cart.    s(47) = (  0.0000000  0.0000000  1.0000000 )
                  (  1.0000000  0.0000000  0.0000000 )
                  (  0.0000000 -1.0000000  0.0000000 )


      isym = 48     inv. 120 deg rotation - cart. axis [-1,-1,1] 

 cryst.   s(48) = (     0         -1          0      )
                  (     0          0          1      )
                  (     1          0          0      )

 cart.    s(48) = (  0.0000000  0.0000000  1.0000000 )
                  ( -1.0000000  0.0000000  0.0000000 )
                  (  0.0000000  1.0000000  0.0000000 )


   Cartesian axes

     site n.     atom                  positions (alat units)
         1           Cs  tau(   1) = (   0.2500001   0.2500001   0.2500001  )
         2           Cs  tau(   2) = (   0.2500001   0.2500001   0.7499999  )
         3           Cs  tau(   3) = (   0.2500001   0.7499999   0.2500001  )
         4           Cs  tau(   4) = (   0.2500001   0.7499999   0.7499999  )
         5           Cs  tau(   5) = (   0.7499999   0.2500001   0.2500001  )
         6           Cs  tau(   6) = (   0.7499999   0.2500001   0.7499999  )
         7           Cs  tau(   7) = (   0.7499999   0.7499999   0.2500001  )
         8           Cs  tau(   8) = (   0.7499999   0.7499999   0.7499999  )
         9           Pb  tau(   9) = (   0.0000000   0.0000000   0.0000000  )
        10           Pb  tau(  10) = (   0.0000000   0.0000000   0.5000000  )
        11           Pb  tau(  11) = (   0.0000000   0.5000000   0.0000000  )
        12           Pb  tau(  12) = (   0.0000000   0.5000000   0.5000000  )
        13           Pb  tau(  13) = (   0.5000000   0.0000000   0.0000000  )
        14           Pb  tau(  14) = (   0.5000000   0.0000000   0.5000000  )
        15           Pb  tau(  15) = (   0.5000000   0.5000000   0.0000000  )
        16           Pb  tau(  16) = (   0.5000000   0.5000000   0.5000000  )
        17           I   tau(  17) = (   0.0000000   0.0000000   0.2500016  )
        18           I   tau(  18) = (   0.0000000   0.0000000   0.7499984  )
        19           I   tau(  19) = (   0.0000000   0.5000000   0.2500017  )
        20           I   tau(  20) = (   0.0000000   0.5000000   0.7499983  )
        21           I   tau(  21) = (   0.5000000   0.0000000   0.2500017  )
        22           I   tau(  22) = (   0.5000000   0.0000000   0.7499983  )
        23           I   tau(  23) = (   0.5000000   0.5000000   0.2500017  )
        24           I   tau(  24) = (   0.5000000   0.5000000   0.7499983  )
        25           I   tau(  25) = (   0.0000000   0.2500016   0.0000000  )
        26           I   tau(  26) = (   0.0000000   0.2500017   0.5000000  )
        27           I   tau(  27) = (   0.0000000   0.7499984   0.0000000  )
        28           I   tau(  28) = (   0.0000000   0.7499983   0.5000000  )
        29           I   tau(  29) = (   0.5000000   0.2500017   0.0000000  )
        30           I   tau(  30) = (   0.5000000   0.2500017   0.5000000  )
        31           I   tau(  31) = (   0.5000000   0.7499983   0.0000000  )
        32           I   tau(  32) = (   0.5000000   0.7499983   0.5000000  )
        33           I   tau(  33) = (   0.2500016   0.0000000   0.0000000  )
        34           I   tau(  34) = (   0.2500017   0.0000000   0.5000000  )
        35           I   tau(  35) = (   0.2500017   0.5000000   0.0000000  )
        36           I   tau(  36) = (   0.2500017   0.5000000   0.5000000  )
        37           I   tau(  37) = (   0.7499984   0.0000000   0.0000000  )
        38           I   tau(  38) = (   0.7499983   0.0000000   0.5000000  )
        39           I   tau(  39) = (   0.7499983   0.5000000   0.0000000  )
        40           I   tau(  40) = (   0.7499983   0.5000000   0.5000000  )

   Crystallographic axes

     site n.     atom                  positions (cryst. coord.)
         1           Cs  tau(   1) = (  0.2500001  0.2500001  0.2500001  )
         2           Cs  tau(   2) = (  0.2500001  0.2500001  0.7499999  )
         3           Cs  tau(   3) = (  0.2500001  0.7499999  0.2500001  )
         4           Cs  tau(   4) = (  0.2500001  0.7499999  0.7499999  )
         5           Cs  tau(   5) = (  0.7499999  0.2500001  0.2500001  )
         6           Cs  tau(   6) = (  0.7499999  0.2500001  0.7499999  )
         7           Cs  tau(   7) = (  0.7499999  0.7499999  0.2500001  )
         8           Cs  tau(   8) = (  0.7499999  0.7499999  0.7499999  )
         9           Pb  tau(   9) = (  0.0000000  0.0000000  0.0000000  )
        10           Pb  tau(  10) = (  0.0000000  0.0000000  0.5000000  )
        11           Pb  tau(  11) = (  0.0000000  0.5000000  0.0000000  )
        12           Pb  tau(  12) = (  0.0000000  0.5000000  0.5000000  )
        13           Pb  tau(  13) = (  0.5000000  0.0000000  0.0000000  )
        14           Pb  tau(  14) = (  0.5000000  0.0000000  0.5000000  )
        15           Pb  tau(  15) = (  0.5000000  0.5000000  0.0000000  )
        16           Pb  tau(  16) = (  0.5000000  0.5000000  0.5000000  )
        17           I   tau(  17) = (  0.0000000  0.0000000  0.2500016  )
        18           I   tau(  18) = (  0.0000000  0.0000000  0.7499984  )
        19           I   tau(  19) = (  0.0000000  0.5000000  0.2500017  )
        20           I   tau(  20) = (  0.0000000  0.5000000  0.7499983  )
        21           I   tau(  21) = (  0.5000000  0.0000000  0.2500017  )
        22           I   tau(  22) = (  0.5000000  0.0000000  0.7499983  )
        23           I   tau(  23) = (  0.5000000  0.5000000  0.2500017  )
        24           I   tau(  24) = (  0.5000000  0.5000000  0.7499983  )
        25           I   tau(  25) = (  0.0000000  0.2500016  0.0000000  )
        26           I   tau(  26) = (  0.0000000  0.2500017  0.5000000  )
        27           I   tau(  27) = (  0.0000000  0.7499984  0.0000000  )
        28           I   tau(  28) = (  0.0000000  0.7499983  0.5000000  )
        29           I   tau(  29) = (  0.5000000  0.2500017  0.0000000  )
        30           I   tau(  30) = (  0.5000000  0.2500017  0.5000000  )
        31           I   tau(  31) = (  0.5000000  0.7499983  0.0000000  )
        32           I   tau(  32) = (  0.5000000  0.7499983  0.5000000  )
        33           I   tau(  33) = (  0.2500016  0.0000000  0.0000000  )
        34           I   tau(  34) = (  0.2500017  0.0000000  0.5000000  )
        35           I   tau(  35) = (  0.2500017  0.5000000  0.0000000  )
        36           I   tau(  36) = (  0.2500017  0.5000000  0.5000000  )
        37           I   tau(  37) = (  0.7499984  0.0000000  0.0000000  )
        38           I   tau(  38) = (  0.7499983  0.0000000  0.5000000  )
        39           I   tau(  39) = (  0.7499983  0.5000000  0.0000000  )
        40           I   tau(  40) = (  0.7499983  0.5000000  0.5000000  )

     number of k points=     4  Marzari-Vanderbilt smearing, width (Ry)=  0.0147
                       cart. coord. in units 2pi/alat
        k(    1) = (   0.0000000   0.0000000   0.0000000), wk =   0.0740741
        k(    2) = (   0.0000000   0.0000000   0.3333333), wk =   0.4444444
        k(    3) = (   0.0000000   0.3333333   0.3333333), wk =   0.8888889
        k(    4) = (   0.3333333   0.3333333   0.3333333), wk =   0.5925926

                       cryst. coord.
        k(    1) = (   0.0000000   0.0000000   0.0000000), wk =   0.0740741
        k(    2) = (   0.0000000   0.0000000   0.3333333), wk =   0.4444444
        k(    3) = (   0.0000000   0.3333333   0.3333333), wk =   0.8888889
        k(    4) = (   0.3333333   0.3333333   0.3333333), wk =   0.5925926

     Dense  grid:   479769 G-vectors     FFT dimensions: ( 100, 100, 100)

     Dynamical RAM for                 wfc:      64.32 MB

     Dynamical RAM for     wfc (w. buffer):     321.62 MB

     Dynamical RAM for           str. fact:       7.32 MB

     Dynamical RAM for           local pot:       0.00 MB

     Dynamical RAM for          nlocal pot:     146.33 MB

     Dynamical RAM for                qrad:       3.05 MB

     Dynamical RAM for          rho,v,vnew:      15.10 MB

     Dynamical RAM for               rhoin:       5.03 MB

     Dynamical RAM for            rho*nmix:      39.04 MB

     Dynamical RAM for           G-vectors:      10.37 MB

     Dynamical RAM for          h,s,v(r/c):       8.15 MB

     Dynamical RAM for          <psi|beta>:       1.55 MB

     Dynamical RAM for                 psi:     128.65 MB

     Dynamical RAM for                hpsi:     128.65 MB

     Dynamical RAM for                spsi:     128.65 MB

     Dynamical RAM for      wfcinit/wfcrot:     167.54 MB

     Dynamical RAM for           addusdens:     512.45 MB

     Dynamical RAM for          addusforce:     626.01 MB

     Dynamical RAM for         addusstress:     490.49 MB

     Estimated static dynamical RAM per process >     570.60 MB

     Estimated max dynamical RAM per process >       1.17 GB

     Estimated total dynamical RAM >       3.51 GB

     Check: negative core charge=   -0.000001

     Initial potential from superposition of free atoms

     starting charge  351.66429, renormalised to  352.00000
     Starting wfcs are  272 randomized atomic wfcs
     Checking if some PAW data can be deallocated... 
       PAW data deallocated on    1 nodes for type:  2
       PAW data deallocated on    1 nodes for type:  3

     total cpu time spent up to now is      260.2 secs

     Self-consistent Calculation

     iteration #  1     ecut=    40.00 Ry     beta= 0.40
     Davidson diagonalization with overlap
     ethr =  1.00E-02,  avg # of iterations =  2.8

     Threshold (ethr) on eigenvalues was too large:
     Diagonalizing with lowered threshold

     Davidson diagonalization with overlap
     ethr =  2.57E-04,  avg # of iterations =  6.8

     total cpu time spent up to now is     1510.1 secs

     total energy              =  -16565.69778003 Ry
     estimated scf accuracy    <       0.82152232 Ry

     iteration #  2     ecut=    40.00 Ry     beta= 0.40
     Davidson diagonalization with overlap
     ethr =  2.33E-04,  avg # of iterations =  5.0

     total cpu time spent up to now is     2163.7 secs

     total energy              =  -16565.82487873 Ry
     estimated scf accuracy    <       0.05270615 Ry

     iteration #  3     ecut=    40.00 Ry     beta= 0.40
     Davidson diagonalization with overlap
     ethr =  1.50E-05,  avg # of iterations =  9.0

     total cpu time spent up to now is     3076.3 secs

     total energy              =  -16565.85180580 Ry
     estimated scf accuracy    <       0.01513070 Ry

     iteration #  4     ecut=    40.00 Ry     beta= 0.40
     Davidson diagonalization with overlap
     ethr =  4.30E-06,  avg # of iterations =  8.0

     total cpu time spent up to now is     3724.7 secs

     total energy              =  -16565.85434511 Ry
     estimated scf accuracy    <       0.00223081 Ry

     iteration #  5     ecut=    40.00 Ry     beta= 0.40
     Davidson diagonalization with overlap
     c_bands:  2 eigenvalues not converged
     ethr =  6.34E-07,  avg # of iterations =  9.0

     total cpu time spent up to now is     4410.4 secs

     total energy              =  -16565.85478411 Ry
     estimated scf accuracy    <       0.00029879 Ry

     iteration #  6     ecut=    40.00 Ry     beta= 0.40
     Davidson diagonalization with overlap
     c_bands:  1 eigenvalues not converged
     ethr =  8.49E-08,  avg # of iterations =  8.5

     total cpu time spent up to now is     5062.6 secs

     total energy              =  -16565.85485937 Ry
     estimated scf accuracy    <       0.00009359 Ry

     iteration #  7     ecut=    40.00 Ry     beta= 0.40
     Davidson diagonalization with overlap
     c_bands:  1 eigenvalues not converged
     ethr =  2.66E-08,  avg # of iterations =  8.2

     total cpu time spent up to now is     5721.5 secs

     total energy              =  -16565.85488364 Ry
     estimated scf accuracy    <       0.00001026 Ry

     iteration #  8     ecut=    40.00 Ry     beta= 0.40
     Davidson diagonalization with overlap
     ethr =  2.92E-09,  avg # of iterations =  7.2

     total cpu time spent up to now is     6406.6 secs

     total energy              =  -16565.85488769 Ry
     estimated scf accuracy    <       0.00000239 Ry

     iteration #  9     ecut=    40.00 Ry     beta= 0.40
     Davidson diagonalization with overlap
     ethr =  6.79E-10,  avg # of iterations =  5.0

     total cpu time spent up to now is     7106.0 secs

     total energy              =  -16565.85488839 Ry
     estimated scf accuracy    <       0.00000071 Ry

     iteration # 10     ecut=    40.00 Ry     beta= 0.40
     Davidson diagonalization with overlap
     ethr =  2.01E-10,  avg # of iterations =  3.2

     total cpu time spent up to now is     7664.8 secs

     total energy              =  -16565.85488846 Ry
     estimated scf accuracy    <       0.00000016 Ry

     iteration # 11     ecut=    40.00 Ry     beta= 0.40
     Davidson diagonalization with overlap
     c_bands:  1 eigenvalues not converged
     ethr =  4.46E-11,  avg # of iterations =  8.0

     total cpu time spent up to now is     8407.3 secs

     total energy              =  -16565.85488851 Ry
     estimated scf accuracy    <       0.00000002 Ry

     iteration # 12     ecut=    40.00 Ry     beta= 0.40
     Davidson diagonalization with overlap
     c_bands:  2 eigenvalues not converged
     ethr =  7.10E-12,  avg # of iterations =  8.0

     total cpu time spent up to now is     8977.4 secs

     total energy              =  -16565.85488852 Ry
     estimated scf accuracy    <          9.5E-09 Ry

     iteration # 13     ecut=    40.00 Ry     beta= 0.40
     Davidson diagonalization with overlap
     ethr =  2.71E-12,  avg # of iterations =  7.5

     total cpu time spent up to now is     9714.7 secs

     total energy              =  -16565.85488852 Ry
     estimated scf accuracy    <       0.00000001 Ry

     iteration # 14     ecut=    40.00 Ry     beta= 0.40
     Davidson diagonalization with overlap
     ethr =  2.71E-12,  avg # of iterations =  2.0

     total cpu time spent up to now is    10256.7 secs

     End of self-consistent calculation

          k = 0.0000 0.0000 0.0000 ( 60005 PWs)   bands (ev):

   -18.6198 -18.6196 -18.6196 -18.6196 -18.6194 -18.6194 -18.6194 -18.6192
   -13.9063 -13.9063 -13.9063 -13.9062 -13.9062 -13.9007 -13.9007 -13.9007
   -13.8951 -13.8951 -13.8951 -13.8894 -13.8894 -13.8893 -13.8893 -13.8893
   -13.8546 -13.8546 -13.8546 -13.8545 -13.8545 -13.8545 -13.8543 -13.8543
   -13.8543 -13.8543 -13.8543 -13.8543 -13.8542 -13.8542 -13.8542 -13.8542
   -13.8542 -13.8542 -13.8540 -13.8540 -13.8540 -13.8539 -13.8539 -13.8539
    -9.3423  -9.1454  -9.1454  -9.1454  -8.9037  -8.9037  -8.9037  -8.8419
    -8.8419  -8.8419  -8.8419  -8.8419  -8.8419  -8.8414  -8.8414  -8.8414
    -8.8363  -8.8363  -8.8363  -8.6150  -8.6150  -8.6129  -8.6129  -8.6129
    -5.6597  -5.4083  -5.4083  -5.4083  -5.3953  -5.3953  -5.3953  -5.3951
    -5.3951  -5.3951  -5.3951  -5.3951  -5.3951  -5.3914  -5.3914  -5.3914
    -5.3914  -5.3914  -5.3914  -5.3881  -5.3881  -5.3881  -5.3872  -5.3872
    -5.3872  -5.1312  -5.1312  -5.1312  -4.6253  -4.6253  -4.6253  -4.1125
    -0.6228  -0.6228  -0.6228  -0.5197  -0.5197  -0.5197  -0.5197  -0.5197
    -0.5197  -0.3837  -0.3837  -0.3837   0.6071   0.6071   0.6071   0.7391
     0.7391   0.7391   0.8908   0.8908   0.8908   1.2094   1.2094   1.2094
     1.2094   1.2094   1.2094   1.3068   1.3068   1.3068   1.3068   1.3068
     1.3068   1.3553   1.3553   1.3553   1.3553   1.3553   1.3553   1.4196
     1.4196   1.4196   1.4308   1.4308   1.4308   1.4383   1.4383   1.5490
     1.5490   1.5490   1.5747   1.5747   1.5747   1.5747   1.5747   1.5747
     1.6634   1.6634   1.6634   1.8954   1.8954   1.8954   2.0489   2.0489
     2.0489   2.0611   2.0611   2.0611   2.3310   2.3310   2.3310   2.7673
     4.2014   4.2014   4.2014   4.6288   4.6288   4.6288   4.6288   4.6288
     4.6288   4.9605   4.9605   4.9605   5.8996   6.7509   6.9739   6.9739
     7.3225   7.3225   7.3225   7.3829   7.3829   7.3830   7.5516   7.5516
     7.5516   7.6020   7.6020   7.6020   7.7696   7.7696   7.7696   7.8690
     7.8697   7.9116   7.9116

     occupation numbers 
     1.0000   1.0000   1.0000   1.0000   1.0000   1.0000   1.0000   1.0000
     1.0000   1.0000   1.0000   1.0000   1.0000   1.0000   1.0000   1.0000
     1.0000   1.0000   1.0000   1.0000   1.0000   1.0000   1.0000   1.0000
     1.0000   1.0000   1.0000   1.0000   1.0000   1.0000   1.0000   1.0000
     1.0000   1.0000   1.0000   1.0000   1.0000   1.0000   1.0000   1.0000
     1.0000   1.0000   1.0000   1.0000   1.0000   1.0000   1.0000   1.0000
     1.0000   1.0000   1.0000   1.0000   1.0000   1.0000   1.0000   1.0000
     1.0000   1.0000   1.0000   1.0000   1.0000   1.0000   1.0000   1.0000
     1.0000   1.0000   1.0000   1.0000   1.0000   1.0000   1.0000   1.0000
     1.0000   1.0000   1.0000   1.0000   1.0000   1.0000   1.0000   1.0000
     1.0000   1.0000   1.0000   1.0000   1.0000   1.0000   1.0000   1.0000
     1.0000   1.0000   1.0000   1.0000   1.0000   1.0000   1.0000   1.0000
     1.0000   1.0000   1.0000   1.0000   1.0000   1.0000   1.0000   1.0000
     1.0000   1.0000   1.0000   1.0000   1.0000   1.0000   1.0000   1.0000
     1.0000   1.0000   1.0000   1.0000   1.0000   1.0000   1.0000   1.0000
     1.0000   1.0000   1.0000   1.0000   1.0000   1.0000   1.0000   1.0000
     1.0000   1.0000   1.0000   1.0000   1.0000   1.0000   1.0000   1.0000
     1.0000   1.0000   1.0000   1.0000   1.0000   1.0000   1.0000   1.0000
     1.0000   1.0000   1.0000   1.0000   1.0000   1.0000   1.0000   1.0000
     1.0000   1.0000   1.0000   1.0000   1.0000   1.0000   1.0000   1.0000
     1.0000   1.0000   1.0000   1.0000   1.0000   1.0000   1.0014   1.0014
     1.0014   1.0018   1.0018   1.0018   1.0763   1.0763   1.0763   0.1103
     0.0000   0.0000   0.0000   0.0000   0.0000   0.0000   0.0000   0.0000
     0.0000   0.0000   0.0000   0.0000   0.0000   0.0000   0.0000   0.0000
     0.0000   0.0000   0.0000   0.0000   0.0000   0.0000   0.0000   0.0000
     0.0000   0.0000   0.0000   0.0000   0.0000   0.0000   0.0000   0.0000
     0.0000   0.0000   0.0000

          k = 0.0000 0.0000 0.3333 ( 59944 PWs)   bands (ev):

   -18.6198 -18.6197 -18.6196 -18.6196 -18.6194 -18.6194 -18.6193 -18.6193
   -13.9062 -13.9062 -13.9043 -13.9043 -13.9034 -13.9016 -13.9016 -13.8979
   -13.8979 -13.8942 -13.8942 -13.8922 -13.8913 -13.8913 -13.8894 -13.8893
   -13.8546 -13.8546 -13.8545 -13.8545 -13.8544 -13.8544 -13.8544 -13.8544
   -13.8543 -13.8543 -13.8543 -13.8543 -13.8542 -13.8542 -13.8542 -13.8542
   -13.8541 -13.8541 -13.8540 -13.8540 -13.8540 -13.8540 -13.8539 -13.8539
    -9.3067  -9.2149  -9.1099  -9.1099  -9.0123  -9.0123  -8.8877  -8.8541
    -8.8417  -8.8417  -8.8415  -8.8415  -8.8405  -8.8405  -8.8377  -8.8377
    -8.7642  -8.7362  -8.7362  -8.6576  -8.6450  -8.6450  -8.6144  -8.6134
    -5.5401  -5.4050  -5.4050  -5.4033  -5.3984  -5.3984  -5.3943  -5.3943
    -5.3942  -5.3942  -5.3942  -5.3942  -5.3932  -5.3927  -5.3923  -5.3923
    -5.3923  -5.3923  -5.3905  -5.3905  -5.3898  -5.3898  -5.3889  -5.3889
    -5.3885  -5.2779  -5.0203  -5.0202  -4.7705  -4.7705  -4.5190  -4.2668
    -0.5987  -0.5987  -0.5473  -0.5473  -0.4886  -0.4886  -0.4209  -0.4209
    -0.2304  -0.1327  -0.1327   0.0068   0.5596   0.6393   0.6697   0.6697
     0.7052   0.7139   0.7139   0.7996   0.7996   0.8134   0.8134   0.9001
     0.9759   0.9759   1.2022   1.2022   1.2218   1.2218   1.3188   1.3188
     1.3430   1.3430   1.3759   1.3759   1.4110   1.4110   1.4326   1.4364
     1.4507   1.5017   1.5017   1.5095   1.5095   1.5105   1.5105   1.5153
     1.5538   1.5538   1.5899   1.5899   1.6018   1.6018   1.6247   1.6313
     1.6313   1.6568   1.6755   1.6755   1.9184   1.9184   1.9297   1.9297
     1.9381   1.9381   2.0520   2.0581   2.0775   2.0775   2.3569   2.4808
     4.3207   4.3207   4.5329   4.5329   4.7212   4.7212   4.8878   4.8878
     5.2137   5.5310   5.5310   5.8177   6.1519   6.7135   6.7869   6.9441
     7.0554   7.0554   7.1127   7.1799   7.3953   7.4486   7.4486   7.4507
     7.4532   7.4684   7.5613   7.5613   7.5929   7.5929   7.6738   7.7169
     7.7355   7.7355   7.7535

     occupation numbers 
     1.0000   1.0000   1.0000   1.0000   1.0000   1.0000   1.0000   1.0000
     1.0000   1.0000   1.0000   1.0000   1.0000   1.0000   1.0000   1.0000
     1.0000   1.0000   1.0000   1.0000   1.0000   1.0000   1.0000   1.0000
     1.0000   1.0000   1.0000   1.0000   1.0000   1.0000   1.0000   1.0000
     1.0000   1.0000   1.0000   1.0000   1.0000   1.0000   1.0000   1.0000
     1.0000   1.0000   1.0000   1.0000   1.0000   1.0000   1.0000   1.0000
     1.0000   1.0000   1.0000   1.0000   1.0000   1.0000   1.0000   1.0000
     1.0000   1.0000   1.0000   1.0000   1.0000   1.0000   1.0000   1.0000
     1.0000   1.0000   1.0000   1.0000   1.0000   1.0000   1.0000   1.0000
     1.0000   1.0000   1.0000   1.0000   1.0000   1.0000   1.0000   1.0000
     1.0000   1.0000   1.0000   1.0000   1.0000   1.0000   1.0000   1.0000
     1.0000   1.0000   1.0000   1.0000   1.0000   1.0000   1.0000   1.0000
     1.0000   1.0000   1.0000   1.0000   1.0000   1.0000   1.0000   1.0000
     1.0000   1.0000   1.0000   1.0000   1.0000   1.0000   1.0000   1.0000
     1.0000   1.0000   1.0000   1.0000   1.0000   1.0000   1.0000   1.0000
     1.0000   1.0000   1.0000   1.0000   1.0000   1.0000   1.0000   1.0000
     1.0000   1.0000   1.0000   1.0000   1.0000   1.0000   1.0000   1.0000
     1.0000   1.0000   1.0000   1.0000   1.0000   1.0000   1.0000   1.0000
     1.0000   1.0000   1.0000   1.0000   1.0000   1.0000   1.0000   1.0000
     1.0000   1.0000   1.0000   1.0000   1.0000   1.0000   1.0000   1.0000
     1.0000   1.0000   1.0000   1.0000   1.0000   1.0000   1.0001   1.0001
     1.0001   1.0001   1.0015   1.0017   1.0026   1.0026   1.0826   0.9717
     0.0000   0.0000   0.0000   0.0000   0.0000   0.0000   0.0000   0.0000
     0.0000   0.0000   0.0000   0.0000   0.0000   0.0000   0.0000   0.0000
     0.0000   0.0000   0.0000   0.0000   0.0000   0.0000   0.0000   0.0000
     0.0000   0.0000   0.0000   0.0000   0.0000   0.0000   0.0000   0.0000
     0.0000   0.0000   0.0000

          k = 0.0000 0.3333 0.3333 ( 59892 PWs)   bands (ev):

   -18.6197 -18.6196 -18.6196 -18.6195 -18.6195 -18.6194 -18.6194 -18.6193
   -13.9048 -13.9044 -13.9043 -13.9021 -13.9021 -13.9020 -13.8988 -13.8987
   -13.8970 -13.8970 -13.8937 -13.8937 -13.8936 -13.8913 -13.8913 -13.8908
   -13.8545 -13.8545 -13.8545 -13.8544 -13.8544 -13.8544 -13.8544 -13.8543
   -13.8543 -13.8543 -13.8543 -13.8543 -13.8543 -13.8542 -13.8542 -13.8542
   -13.8542 -13.8541 -13.8541 -13.8540 -13.8540 -13.8540 -13.8540 -13.8539
    -9.2716  -9.1804  -9.1804  -9.0893  -9.0770  -8.9877  -8.9877  -8.9237
    -8.8412  -8.8407  -8.8407  -8.8387  -8.7876  -8.7827  -8.7665  -8.7665
    -8.7471  -8.7471  -8.7137  -8.6743  -8.6711  -8.6447  -8.6447  -8.6370
    -5.4307  -5.4041  -5.3982  -5.3982  -5.3980  -5.3978  -5.3978  -5.3956
    -5.3951  -5.3949  -5.3948  -5.3937  -5.3937  -5.3934  -5.3928  -5.3917
    -5.3915  -5.3915  -5.3912  -5.3912  -5.3904  -5.3898  -5.3895  -5.3891
    -5.3891  -5.1648  -5.1648  -4.9143  -4.9122  -4.6646  -4.6646  -4.4164
    -0.5730  -0.5181  -0.5181  -0.4551  -0.2841  -0.1684  -0.1684  -0.1631
    -0.1318  -0.0402  -0.0386  -0.0386   0.5632   0.5768   0.5768   0.6336
     0.6921   0.6921   0.7234   0.7293   0.7293   0.7505   0.7717   0.7875
     0.8185   0.9793   0.9793   1.0454   1.0480   1.1471   1.1842   1.1842
     1.2203   1.2203   1.3297   1.3471   1.3632   1.3979   1.3979   1.4094
     1.4840   1.5230   1.5275   1.5275   1.5301   1.5498   1.5498   1.5641
     1.5823   1.5859   1.5937   1.5937   1.6235   1.6235   1.6701   1.6899
     1.6899   1.7088   1.7364   1.7541   1.7541   1.7890   1.8637   1.8899
     1.8959   1.9439   1.9439   1.9461   1.9784   2.0857   2.0857   2.1770
     4.4313   4.6308   4.6308   4.8083   5.2447   5.3323   5.4483   5.4483
     5.5706   5.6323   5.7470   5.7470   6.3631   6.7715   6.7715   6.8929
     6.8929   6.9103   6.9613   7.0787   7.1651   7.1651   7.1963   7.2784
     7.2927   7.3404   7.3487   7.4162   7.4394   7.4395   7.5703   7.5846
     7.5846   7.6232   7.6956

     occupation numbers 
     1.0000   1.0000   1.0000   1.0000   1.0000   1.0000   1.0000   1.0000
     1.0000   1.0000   1.0000   1.0000   1.0000   1.0000   1.0000   1.0000
     1.0000   1.0000   1.0000   1.0000   1.0000   1.0000   1.0000   1.0000
     1.0000   1.0000   1.0000   1.0000   1.0000   1.0000   1.0000   1.0000
     1.0000   1.0000   1.0000   1.0000   1.0000   1.0000   1.0000   1.0000
     1.0000   1.0000   1.0000   1.0000   1.0000   1.0000   1.0000   1.0000
     1.0000   1.0000   1.0000   1.0000   1.0000   1.0000   1.0000   1.0000
     1.0000   1.0000   1.0000   1.0000   1.0000   1.0000   1.0000   1.0000
     1.0000   1.0000   1.0000   1.0000   1.0000   1.0000   1.0000   1.0000
     1.0000   1.0000   1.0000   1.0000   1.0000   1.0000   1.0000   1.0000
     1.0000   1.0000   1.0000   1.0000   1.0000   1.0000   1.0000   1.0000
     1.0000   1.0000   1.0000   1.0000   1.0000   1.0000   1.0000   1.0000
     1.0000   1.0000   1.0000   1.0000   1.0000   1.0000   1.0000   1.0000
     1.0000   1.0000   1.0000   1.0000   1.0000   1.0000   1.0000   1.0000
     1.0000   1.0000   1.0000   1.0000   1.0000   1.0000   1.0000   1.0000
     1.0000   1.0000   1.0000   1.0000   1.0000   1.0000   1.0000   1.0000
     1.0000   1.0000   1.0000   1.0000   1.0000   1.0000   1.0000   1.0000
     1.0000   1.0000   1.0000   1.0000   1.0000   1.0000   1.0000   1.0000
     1.0000   1.0000   1.0000   1.0000   1.0000   1.0000   1.0000   1.0000
     1.0000   1.0000   1.0000   1.0000   1.0000   1.0000   1.0000   1.0000
     1.0000   1.0000   1.0000   1.0000   1.0000   1.0000   1.0000   1.0000
     1.0000   1.0001   1.0001   1.0001   1.0003   1.0031   1.0031   1.0157
     0.0000   0.0000   0.0000   0.0000   0.0000   0.0000   0.0000   0.0000
     0.0000   0.0000   0.0000   0.0000   0.0000   0.0000   0.0000   0.0000
     0.0000   0.0000   0.0000   0.0000   0.0000   0.0000   0.0000   0.0000
     0.0000   0.0000   0.0000   0.0000   0.0000   0.0000   0.0000   0.0000
     0.0000   0.0000   0.0000

          k = 0.3333 0.3333 0.3333 ( 59956 PWs)   bands (ev):

   -18.6197 -18.6196 -18.6196 -18.6196 -18.6194 -18.6194 -18.6194 -18.6193
   -13.9021 -13.9021 -13.9020 -13.9020 -13.9020 -13.8993 -13.8993 -13.8993
   -13.8965 -13.8965 -13.8965 -13.8937 -13.8937 -13.8936 -13.8936 -13.8936
   -13.8545 -13.8545 -13.8545 -13.8544 -13.8544 -13.8544 -13.8543 -13.8543
   -13.8543 -13.8543 -13.8543 -13.8543 -13.8542 -13.8542 -13.8542 -13.8542
   -13.8542 -13.8542 -13.8541 -13.8541 -13.8541 -13.8541 -13.8540 -13.8540
    -9.2373  -9.1478  -9.1478  -9.1478  -9.0615  -9.0615  -9.0615  -8.9889
    -8.7864  -8.7864  -8.7864  -8.7839  -8.7839  -8.7678  -8.7678  -8.7678
    -8.7315  -8.7315  -8.7315  -8.6735  -8.6735  -8.6719  -8.6719  -8.6719
    -5.4018  -5.4018  -5.3974  -5.3971  -5.3971  -5.3971  -5.3971  -5.3971
    -5.3971  -5.3954  -5.3954  -5.3954  -5.3950  -5.3950  -5.3943  -5.3943
    -5.3943  -5.3897  -5.3897  -5.3897  -5.3879  -5.3877  -5.3877  -5.3877
    -5.3063  -5.0558  -5.0558  -5.0558  -4.8084  -4.8084  -4.8084  -4.5626
    -0.2566  -0.2566  -0.1965  -0.1965  -0.1965  -0.0834  -0.0834  -0.0834
    -0.0802  -0.0802  -0.0802  -0.0382   0.5893   0.5893   0.5893   0.5929
     0.5929   0.5929   0.6479   0.6479   0.6479   0.6623   0.6623   0.6869
     0.9542   0.9542   0.9951   0.9951   0.9951   1.1267   1.1267   1.1267
     1.1690   1.1690   1.1690   1.2654   1.2654   1.2654   1.3138   1.3138
     1.4226   1.4395   1.4395   1.4395   1.4836   1.4836   1.4836   1.6648
     1.6769   1.6769   1.6769   1.7059   1.7059   1.7130   1.7130   1.7130
     1.7301   1.7301   1.7301   1.7352   1.7656   1.7656   1.7656   1.8207
     1.8207   1.8207   1.8782   1.8782   1.8969   1.8969   1.8969   1.9194
     5.3243   5.3243   5.4396   5.4876   5.4876   5.4876   5.5529   5.5529
     5.5529   5.6710   5.6710   5.6710   6.5116   6.8100   6.8100   6.8100
     6.8439   6.8439   6.8439   7.0063   7.0063   7.0063   7.1146   7.1406
     7.1406   7.1798   7.1798   7.1798   7.1840   7.2795   7.2795   7.2795
     7.3992   7.3992   7.7693

     occupation numbers 
     1.0000   1.0000   1.0000   1.0000   1.0000   1.0000   1.0000   1.0000
     1.0000   1.0000   1.0000   1.0000   1.0000   1.0000   1.0000   1.0000
     1.0000   1.0000   1.0000   1.0000   1.0000   1.0000   1.0000   1.0000
     1.0000   1.0000   1.0000   1.0000   1.0000   1.0000   1.0000   1.0000
     1.0000   1.0000   1.0000   1.0000   1.0000   1.0000   1.0000   1.0000
     1.0000   1.0000   1.0000   1.0000   1.0000   1.0000   1.0000   1.0000
     1.0000   1.0000   1.0000   1.0000   1.0000   1.0000   1.0000   1.0000
     1.0000   1.0000   1.0000   1.0000   1.0000   1.0000   1.0000   1.0000
     1.0000   1.0000   1.0000   1.0000   1.0000   1.0000   1.0000   1.0000
     1.0000   1.0000   1.0000   1.0000   1.0000   1.0000   1.0000   1.0000
     1.0000   1.0000   1.0000   1.0000   1.0000   1.0000   1.0000   1.0000
     1.0000   1.0000   1.0000   1.0000   1.0000   1.0000   1.0000   1.0000
     1.0000   1.0000   1.0000   1.0000   1.0000   1.0000   1.0000   1.0000
     1.0000   1.0000   1.0000   1.0000   1.0000   1.0000   1.0000   1.0000
     1.0000   1.0000   1.0000   1.0000   1.0000   1.0000   1.0000   1.0000
     1.0000   1.0000   1.0000   1.0000   1.0000   1.0000   1.0000   1.0000
     1.0000   1.0000   1.0000   1.0000   1.0000   1.0000   1.0000   1.0000
     1.0000   1.0000   1.0000   1.0000   1.0000   1.0000   1.0000   1.0000
     1.0000   1.0000   1.0000   1.0000   1.0000   1.0000   1.0000   1.0000
     1.0000   1.0000   1.0000   1.0000   1.0000   1.0000   1.0000   1.0000
     1.0000   1.0000   1.0000   1.0000   1.0000   1.0000   1.0000   1.0000
     1.0000   1.0000   1.0000   1.0000   1.0000   1.0000   1.0000   1.0001
     0.0000   0.0000   0.0000   0.0000   0.0000   0.0000   0.0000   0.0000
     0.0000   0.0000   0.0000   0.0000   0.0000   0.0000   0.0000   0.0000
     0.0000   0.0000   0.0000   0.0000   0.0000   0.0000   0.0000   0.0000
     0.0000   0.0000   0.0000   0.0000   0.0000   0.0000   0.0000   0.0000
     0.0000   0.0000   0.0000

     the Fermi energy is     2.6512 ev

!    total energy              =  -16565.85488851 Ry
     estimated scf accuracy    <          2.7E-09 Ry
     smearing contrib. (-TS)   =       0.00294110 Ry
     internal energy E=F+TS    =  -16565.85782961 Ry

     The total energy is F=E-TS. E is the sum of the following terms:
     one-electron contribution =    -767.65677475 Ry
     hartree contribution      =     549.49373107 Ry
     xc contribution           =   -1598.31301417 Ry
     ewald contribution        =   -1229.22289246 Ry
     one-center paw contrib.   =  -13520.15887929 Ry
      -> PAW hartree energy AE =     589.12785991 Ry
      -> PAW hartree energy PS =    -587.60470772 Ry
      -> PAW xc energy AE      =   -4634.51440791 Ry
      -> PAW xc energy PS      =     262.35167636 Ry
      -> total E_H with PAW    =     551.01688326 Ry
      -> total E_XC with PAW   =   -5970.47574572 Ry

     convergence has been achieved in  14 iterations

     Forces acting on atoms (cartesian axes, Ry/au):

     atom    1 type  1   force =     0.00000041    0.00000041    0.00000041
     atom    2 type  1   force =     0.00000041    0.00000041   -0.00000041
     atom    3 type  1   force =     0.00000041   -0.00000041    0.00000041
     atom    4 type  1   force =     0.00000041   -0.00000041   -0.00000041
     atom    5 type  1   force =    -0.00000041    0.00000041    0.00000041
     atom    6 type  1   force =    -0.00000041    0.00000041   -0.00000041
     atom    7 type  1   force =    -0.00000041   -0.00000041    0.00000041
     atom    8 type  1   force =    -0.00000041   -0.00000041   -0.00000041
     atom    9 type  3   force =     0.00000000    0.00000000    0.00000000
     atom   10 type  3   force =     0.00000000    0.00000000    0.00000000
     atom   11 type  3   force =     0.00000000    0.00000000    0.00000000
     atom   12 type  3   force =     0.00000000    0.00000000    0.00000000
     atom   13 type  3   force =     0.00000000    0.00000000    0.00000000
     atom   14 type  3   force =     0.00000000    0.00000000    0.00000000
     atom   15 type  3   force =     0.00000000    0.00000000    0.00000000
     atom   16 type  3   force =     0.00000000    0.00000000    0.00000000
     atom   17 type  2   force =     0.00000000    0.00000000   -0.00000456
     atom   18 type  2   force =     0.00000000    0.00000000    0.00000456
     atom   19 type  2   force =     0.00000000    0.00000000   -0.00000456
     atom   20 type  2   force =     0.00000000    0.00000000    0.00000456
     atom   21 type  2   force =     0.00000000    0.00000000   -0.00000456
     atom   22 type  2   force =    -0.00000000    0.00000000    0.00000456
     atom   23 type  2   force =    -0.00000000    0.00000000   -0.00000456
     atom   24 type  2   force =     0.00000000    0.00000000    0.00000456
     atom   25 type  2   force =     0.00000000   -0.00000456    0.00000000
     atom   26 type  2   force =     0.00000000   -0.00000456    0.00000000
     atom   27 type  2   force =     0.00000000    0.00000456    0.00000000
     atom   28 type  2   force =     0.00000000    0.00000456    0.00000000
     atom   29 type  2   force =     0.00000000   -0.00000456    0.00000000
     atom   30 type  2   force =     0.00000000   -0.00000456    0.00000000
     atom   31 type  2   force =     0.00000000    0.00000456    0.00000000
     atom   32 type  2   force =    -0.00000000    0.00000456   -0.00000000
     atom   33 type  2   force =    -0.00000456   -0.00000000    0.00000000
     atom   34 type  2   force =    -0.00000456   -0.00000000   -0.00000000
     atom   35 type  2   force =    -0.00000456   -0.00000000    0.00000000
     atom   36 type  2   force =    -0.00000456   -0.00000000   -0.00000000
     atom   37 type  2   force =     0.00000456   -0.00000000   -0.00000000
     atom   38 type  2   force =     0.00000456    0.00000000    0.00000000
     atom   39 type  2   force =     0.00000456    0.00000000    0.00000000
     atom   40 type  2   force =     0.00000456    0.00000000    0.00000000
     The non-local contrib.  to forces
     atom    1 type  1   force =    -0.00000004   -0.00000004   -0.00000004
     atom    2 type  1   force =    -0.00000004   -0.00000004    0.00000004
     atom    3 type  1   force =    -0.00000004    0.00000004   -0.00000004
     atom    4 type  1   force =    -0.00000004    0.00000004    0.00000004
     atom    5 type  1   force =     0.00000004   -0.00000004   -0.00000004
     atom    6 type  1   force =     0.00000004   -0.00000004    0.00000004
     atom    7 type  1   force =     0.00000004    0.00000004   -0.00000004
     atom    8 type  1   force =     0.00000004    0.00000004    0.00000004
     atom    9 type  3   force =     0.00000000    0.00000000    0.00000000
     atom   10 type  3   force =     0.00000000    0.00000000    0.00000000
     atom   11 type  3   force =     0.00000000    0.00000000    0.00000000
     atom   12 type  3   force =     0.00000000    0.00000000    0.00000000
     atom   13 type  3   force =     0.00000000    0.00000000    0.00000000
     atom   14 type  3   force =     0.00000000    0.00000000    0.00000000
     atom   15 type  3   force =     0.00000000    0.00000000    0.00000000
     atom   16 type  3   force =     0.00000000    0.00000000    0.00000000
     atom   17 type  2   force =     0.00000000    0.00000000    0.00000094
     atom   18 type  2   force =     0.00000000    0.00000000   -0.00000094
     atom   19 type  2   force =     0.00000000    0.00000000    0.00000084
     atom   20 type  2   force =     0.00000000    0.00000000   -0.00000084
     atom   21 type  2   force =     0.00000000    0.00000000    0.00000084
     atom   22 type  2   force =     0.00000000    0.00000000   -0.00000084
     atom   23 type  2   force =     0.00000000    0.00000000    0.00000086
     atom   24 type  2   force =     0.00000000   -0.00000000   -0.00000086
     atom   25 type  2   force =    -0.00000000    0.00000094    0.00000000
     atom   26 type  2   force =     0.00000000    0.00000084    0.00000000
     atom   27 type  2   force =     0.00000000   -0.00000094    0.00000000
     atom   28 type  2   force =     0.00000000   -0.00000084    0.00000000
     atom   29 type  2   force =     0.00000000    0.00000084    0.00000000
     atom   30 type  2   force =     0.00000000    0.00000086    0.00000000
     atom   31 type  2   force =     0.00000000   -0.00000084    0.00000000
     atom   32 type  2   force =     0.00000000   -0.00000086    0.00000000
     atom   33 type  2   force =     0.00000094    0.00000000    0.00000000
     atom   34 type  2   force =     0.00000084    0.00000000    0.00000000
     atom   35 type  2   force =     0.00000084    0.00000000    0.00000000
     atom   36 type  2   force =     0.00000086    0.00000000   -0.00000000
     atom   37 type  2   force =    -0.00000094    0.00000000    0.00000000
     atom   38 type  2   force =    -0.00000084    0.00000000   -0.00000000
     atom   39 type  2   force =    -0.00000084    0.00000000    0.00000000
     atom   40 type  2   force =    -0.00000086   -0.00000000   -0.00000000
     The ionic contribution  to forces
     atom    1 type  1   force =    -0.00004935   -0.00004935   -0.00004935
     atom    2 type  1   force =    -0.00004935   -0.00004935    0.00004935
     atom    3 type  1   force =    -0.00004935    0.00004935   -0.00004935
     atom    4 type  1   force =    -0.00004935    0.00004935    0.00004935
     atom    5 type  1   force =     0.00004935   -0.00004935   -0.00004935
     atom    6 type  1   force =     0.00004935   -0.00004935    0.00004935
     atom    7 type  1   force =     0.00004935    0.00004935   -0.00004935
     atom    8 type  1   force =     0.00004935    0.00004935    0.00004935
     atom    9 type  3   force =    -0.00000000   -0.00000000   -0.00000000
     atom   10 type  3   force =     0.00000000    0.00000000    0.00000000
     atom   11 type  3   force =     0.00000000    0.00000000    0.00000000
     atom   12 type  3   force =    -0.00000000    0.00000000    0.00000000
     atom   13 type  3   force =     0.00000000    0.00000000    0.00000000
     atom   14 type  3   force =     0.00000000   -0.00000000    0.00000000
     atom   15 type  3   force =     0.00000000    0.00000000   -0.00000000
     atom   16 type  3   force =     0.00000000    0.00000000    0.00000000
     atom   17 type  2   force =    -0.00000000   -0.00000000   -0.00020855
     atom   18 type  2   force =    -0.00000000   -0.00000000    0.00020855
     atom   19 type  2   force =    -0.00000000    0.00000000   -0.00021075
     atom   20 type  2   force =    -0.00000000    0.00000000    0.00021075
     atom   21 type  2   force =     0.00000000   -0.00000000   -0.00021075
     atom   22 type  2   force =     0.00000000   -0.00000000    0.00021075
     atom   23 type  2   force =     0.00000000    0.00000000   -0.00021115
     atom   24 type  2   force =    -0.00000000   -0.00000000    0.00021115
     atom   25 type  2   force =    -0.00000000   -0.00020855   -0.00000000
     atom   26 type  2   force =    -0.00000000   -0.00021075    0.00000000
     atom   27 type  2   force =    -0.00000000    0.00020855   -0.00000000
     atom   28 type  2   force =    -0.00000000    0.00021075    0.00000000
     atom   29 type  2   force =     0.00000000   -0.00021075   -0.00000000
     atom   30 type  2   force =     0.00000000   -0.00021115    0.00000000
     atom   31 type  2   force =     0.00000000    0.00021075   -0.00000000
     atom   32 type  2   force =    -0.00000000    0.00021115   -0.00000000
     atom   33 type  2   force =    -0.00020855   -0.00000000   -0.00000000
     atom   34 type  2   force =    -0.00021075   -0.00000000    0.00000000
     atom   35 type  2   force =    -0.00021075    0.00000000   -0.00000000
     atom   36 type  2   force =    -0.00021115    0.00000000    0.00000000
     atom   37 type  2   force =     0.00020855   -0.00000000   -0.00000000
     atom   38 type  2   force =     0.00021075   -0.00000000    0.00000000
     atom   39 type  2   force =     0.00021075    0.00000000   -0.00000000
     atom   40 type  2   force =     0.00021115   -0.00000000   -0.00000000
     The local contribution  to forces
     atom    1 type  1   force =     0.00004975    0.00004975    0.00004975
     atom    2 type  1   force =     0.00004975    0.00004975   -0.00004975
     atom    3 type  1   force =     0.00004975   -0.00004975    0.00004975
     atom    4 type  1   force =     0.00004975   -0.00004975   -0.00004975
     atom    5 type  1   force =    -0.00004975    0.00004975    0.00004975
     atom    6 type  1   force =    -0.00004975    0.00004975   -0.00004975
     atom    7 type  1   force =    -0.00004975   -0.00004975    0.00004975
     atom    8 type  1   force =    -0.00004975   -0.00004975   -0.00004975
     atom    9 type  3   force =     0.00000000    0.00000000    0.00000000
     atom   10 type  3   force =     0.00000000    0.00000000    0.00000000
     atom   11 type  3   force =     0.00000000    0.00000000    0.00000000
     atom   12 type  3   force =     0.00000000    0.00000000    0.00000000
     atom   13 type  3   force =     0.00000000    0.00000000    0.00000000
     atom   14 type  3   force =     0.00000000   -0.00000000    0.00000000
     atom   15 type  3   force =     0.00000000    0.00000000    0.00000000
     atom   16 type  3   force =     0.00000000    0.00000000    0.00000000
     atom   17 type  2   force =     0.00000000    0.00000000    0.00020246
     atom   18 type  2   force =     0.00000000    0.00000000   -0.00020246
     atom   19 type  2   force =     0.00000000   -0.00000000    0.00020434
     atom   20 type  2   force =     0.00000000    0.00000000   -0.00020434
     atom   21 type  2   force =    -0.00000000    0.00000000    0.00020434
     atom   22 type  2   force =     0.00000000    0.00000000   -0.00020434
     atom   23 type  2   force =     0.00000000    0.00000000    0.00020533
     atom   24 type  2   force =    -0.00000000   -0.00000000   -0.00020533
     atom   25 type  2   force =    -0.00000000    0.00020246   -0.00000000
     atom   26 type  2   force =     0.00000000    0.00020434   -0.00000000
     atom   27 type  2   force =    -0.00000000   -0.00020246   -0.00000000
     atom   28 type  2   force =     0.00000000   -0.00020434    0.00000000
     atom   29 type  2   force =    -0.00000000    0.00020434   -0.00000000
     atom   30 type  2   force =     0.00000000    0.00020533    0.00000000
     atom   31 type  2   force =     0.00000000   -0.00020434   -0.00000000
     atom   32 type  2   force =     0.00000000   -0.00020533   -0.00000000
     atom   33 type  2   force =     0.00020246   -0.00000000    0.00000000
     atom   34 type  2   force =     0.00020434   -0.00000000   -0.00000000
     atom   35 type  2   force =     0.00020434    0.00000000   -0.00000000
     atom   36 type  2   force =     0.00020533    0.00000000    0.00000000
     atom   37 type  2   force =    -0.00020246   -0.00000000   -0.00000000
     atom   38 type  2   force =    -0.00020434    0.00000000    0.00000000
     atom   39 type  2   force =    -0.00020434    0.00000000   -0.00000000
     atom   40 type  2   force =    -0.00020533    0.00000000   -0.00000000
     The core correction contribution to forces
     atom    1 type  1   force =     0.00000004    0.00000004    0.00000004
     atom    2 type  1   force =     0.00000004    0.00000004   -0.00000004
     atom    3 type  1   force =     0.00000004   -0.00000004    0.00000004
     atom    4 type  1   force =     0.00000004   -0.00000004   -0.00000004
     atom    5 type  1   force =    -0.00000004    0.00000004    0.00000004
     atom    6 type  1   force =    -0.00000004    0.00000004   -0.00000004
     atom    7 type  1   force =    -0.00000004   -0.00000004    0.00000004
     atom    8 type  1   force =    -0.00000004   -0.00000004   -0.00000004
     atom    9 type  3   force =     0.00000000    0.00000000    0.00000000
     atom   10 type  3   force =    -0.00000000   -0.00000000    0.00000000
     atom   11 type  3   force =    -0.00000000    0.00000000   -0.00000000
     atom   12 type  3   force =     0.00000000   -0.00000000   -0.00000000
     atom   13 type  3   force =     0.00000000   -0.00000000   -0.00000000
     atom   14 type  3   force =    -0.00000000    0.00000000   -0.00000000
     atom   15 type  3   force =    -0.00000000   -0.00000000    0.00000000
     atom   16 type  3   force =     0.00000000    0.00000000    0.00000000
     atom   17 type  2   force =     0.00000000    0.00000000    0.00000061
     atom   18 type  2   force =     0.00000000    0.00000000   -0.00000061
     atom   19 type  2   force =     0.00000000   -0.00000000    0.00000057
     atom   20 type  2   force =     0.00000000   -0.00000000   -0.00000057
     atom   21 type  2   force =    -0.00000000    0.00000000    0.00000057
     atom   22 type  2   force =    -0.00000000    0.00000000   -0.00000057
     atom   23 type  2   force =    -0.00000000   -0.00000000    0.00000052
     atom   24 type  2   force =     0.00000000    0.00000000   -0.00000052
     atom   25 type  2   force =     0.00000000    0.00000061    0.00000000
     atom   26 type  2   force =     0.00000000    0.00000057   -0.00000000
     atom   27 type  2   force =     0.00000000   -0.00000061    0.00000000
     atom   28 type  2   force =     0.00000000   -0.00000057   -0.00000000
     atom   29 type  2   force =    -0.00000000    0.00000057    0.00000000
     atom   30 type  2   force =    -0.00000000    0.00000052   -0.00000000
     atom   31 type  2   force =    -0.00000000   -0.00000057    0.00000000
     atom   32 type  2   force =     0.00000000   -0.00000052    0.00000000
     atom   33 type  2   force =     0.00000061    0.00000000    0.00000000
     atom   34 type  2   force =     0.00000057    0.00000000   -0.00000000
     atom   35 type  2   force =     0.00000057   -0.00000000    0.00000000
     atom   36 type  2   force =     0.00000052   -0.00000000   -0.00000000
     atom   37 type  2   force =    -0.00000061    0.00000000    0.00000000
     atom   38 type  2   force =    -0.00000057    0.00000000   -0.00000000
     atom   39 type  2   force =    -0.00000057   -0.00000000    0.00000000
     atom   40 type  2   force =    -0.00000052    0.00000000    0.00000000
     The Hubbard contrib.    to forces
     atom    1 type  1   force =     0.00000000    0.00000000    0.00000000
     atom    2 type  1   force =     0.00000000    0.00000000    0.00000000
     atom    3 type  1   force =     0.00000000    0.00000000    0.00000000
     atom    4 type  1   force =     0.00000000    0.00000000    0.00000000
     atom    5 type  1   force =     0.00000000    0.00000000    0.00000000
     atom    6 type  1   force =     0.00000000    0.00000000    0.00000000
     atom    7 type  1   force =     0.00000000    0.00000000    0.00000000
     atom    8 type  1   force =     0.00000000    0.00000000    0.00000000
     atom    9 type  3   force =     0.00000000    0.00000000    0.00000000
     atom   10 type  3   force =     0.00000000    0.00000000    0.00000000
     atom   11 type  3   force =     0.00000000    0.00000000    0.00000000
     atom   12 type  3   force =     0.00000000    0.00000000    0.00000000
     atom   13 type  3   force =     0.00000000    0.00000000    0.00000000
     atom   14 type  3   force =     0.00000000    0.00000000    0.00000000
     atom   15 type  3   force =     0.00000000    0.00000000    0.00000000
     atom   16 type  3   force =     0.00000000    0.00000000    0.00000000
     atom   17 type  2   force =     0.00000000    0.00000000    0.00000000
     atom   18 type  2   force =     0.00000000    0.00000000    0.00000000
     atom   19 type  2   force =     0.00000000    0.00000000    0.00000000
     atom   20 type  2   force =     0.00000000    0.00000000    0.00000000
     atom   21 type  2   force =     0.00000000    0.00000000    0.00000000
     atom   22 type  2   force =     0.00000000    0.00000000    0.00000000
     atom   23 type  2   force =     0.00000000    0.00000000    0.00000000
     atom   24 type  2   force =     0.00000000    0.00000000    0.00000000
     atom   25 type  2   force =     0.00000000    0.00000000    0.00000000
     atom   26 type  2   force =     0.00000000    0.00000000    0.00000000
     atom   27 type  2   force =     0.00000000    0.00000000    0.00000000
     atom   28 type  2   force =     0.00000000    0.00000000    0.00000000
     atom   29 type  2   force =     0.00000000    0.00000000    0.00000000
     atom   30 type  2   force =     0.00000000    0.00000000    0.00000000
     atom   31 type  2   force =     0.00000000    0.00000000    0.00000000
     atom   32 type  2   force =     0.00000000    0.00000000    0.00000000
     atom   33 type  2   force =     0.00000000    0.00000000    0.00000000
     atom   34 type  2   force =     0.00000000    0.00000000    0.00000000
     atom   35 type  2   force =     0.00000000    0.00000000    0.00000000
     atom   36 type  2   force =     0.00000000    0.00000000    0.00000000
     atom   37 type  2   force =     0.00000000    0.00000000    0.00000000
     atom   38 type  2   force =     0.00000000    0.00000000    0.00000000
     atom   39 type  2   force =     0.00000000    0.00000000    0.00000000
     atom   40 type  2   force =     0.00000000    0.00000000    0.00000000
     The SCF correction term to forces
     atom    1 type  1   force =     0.00000002    0.00000002    0.00000002
     atom    2 type  1   force =     0.00000002    0.00000002   -0.00000002
     atom    3 type  1   force =     0.00000002   -0.00000002    0.00000002
     atom    4 type  1   force =     0.00000002   -0.00000002   -0.00000002
     atom    5 type  1   force =    -0.00000002    0.00000002    0.00000002
     atom    6 type  1   force =    -0.00000002    0.00000002   -0.00000002
     atom    7 type  1   force =    -0.00000002   -0.00000002    0.00000002
     atom    8 type  1   force =    -0.00000002   -0.00000002   -0.00000002
     atom    9 type  3   force =     0.00000000   -0.00000000    0.00000000
     atom   10 type  3   force =    -0.00000000   -0.00000000    0.00000000
     atom   11 type  3   force =     0.00000000    0.00000000   -0.00000000
     atom   12 type  3   force =     0.00000000    0.00000000    0.00000000
     atom   13 type  3   force =     0.00000000   -0.00000000   -0.00000000
     atom   14 type  3   force =    -0.00000000   -0.00000000    0.00000000
     atom   15 type  3   force =    -0.00000000    0.00000000    0.00000000
     atom   16 type  3   force =    -0.00000000    0.00000000    0.00000000
     atom   17 type  2   force =    -0.00000000    0.00000000   -0.00000002
     atom   18 type  2   force =    -0.00000000   -0.00000000    0.00000002
     atom   19 type  2   force =     0.00000000    0.00000000    0.00000044
     atom   20 type  2   force =     0.00000000    0.00000000   -0.00000044
     atom   21 type  2   force =     0.00000000   -0.00000000    0.00000044
     atom   22 type  2   force =     0.00000000   -0.00000000   -0.00000044
     atom   23 type  2   force =     0.00000000    0.00000000   -0.00000013
     atom   24 type  2   force =    -0.00000000   -0.00000000    0.00000013
     atom   25 type  2   force =    -0.00000000   -0.00000002   -0.00000000
     atom   26 type  2   force =    -0.00000000    0.00000044    0.00000000
     atom   27 type  2   force =     0.00000000    0.00000002   -0.00000000
     atom   28 type  2   force =     0.00000000   -0.00000044    0.00000000
     atom   29 type  2   force =     0.00000000    0.00000044   -0.00000000
     atom   30 type  2   force =     0.00000000   -0.00000013   -0.00000000
     atom   31 type  2   force =     0.00000000   -0.00000044   -0.00000000
     atom   32 type  2   force =    -0.00000000    0.00000013    0.00000000
     atom   33 type  2   force =    -0.00000002    0.00000000   -0.00000000
     atom   34 type  2   force =     0.00000044    0.00000000    0.00000000
     atom   35 type  2   force =     0.00000044   -0.00000000   -0.00000000
     atom   36 type  2   force =    -0.00000013    0.00000000    0.00000000
     atom   37 type  2   force =     0.00000002    0.00000000   -0.00000000
     atom   38 type  2   force =    -0.00000044    0.00000000    0.00000000
     atom   39 type  2   force =    -0.00000044   -0.00000000   -0.00000000
     atom   40 type  2   force =     0.00000013   -0.00000000    0.00000000

     Total force =     0.000022     Total SCF correction =     0.000002


     Computing stress (Cartesian axis) and pressure

          total   stress  (Ry/bohr**3)                   (kbar)     P=        0.51
   0.00000347   0.00000000   0.00000000            0.51        0.00        0.00
   0.00000000   0.00000347   0.00000000            0.00        0.51        0.00
   0.00000000   0.00000000   0.00000347            0.00        0.00        0.51

     kinetic stress (kbar)   3449.93      0.00      0.00
                                0.00   3449.93      0.00
                                0.00      0.00   3449.93

     local   stress (kbar)   -371.54     -0.00     -0.00
                               -0.00   -371.54     -0.00
                               -0.00     -0.00   -371.54

     nonloc. stress (kbar)    896.56      0.00      0.00
                                0.00    896.56      0.00
                                0.00      0.00    896.56

     hartree stress (kbar)   1920.44     -0.00     -0.00
                               -0.00   1920.44      0.00
                               -0.00      0.00   1920.44

     exc-cor stress (kbar)  12007.48      0.00     -0.00
                                0.00  12007.48      0.00
                               -0.00      0.00  12007.48

     corecor stress (kbar) -13606.32     -0.00     -0.00
                               -0.00 -13606.32      0.00
                               -0.00      0.00 -13606.32

     ewald   stress (kbar)  -4296.03      0.00     -0.00
                                0.00  -4296.03     -0.00
                               -0.00     -0.00  -4296.03

     hubbard stress (kbar)      0.00      0.00      0.00
                                0.00      0.00      0.00
                                0.00      0.00      0.00

     DFT-D   stress (kbar)      0.00      0.00      0.00
                                0.00      0.00      0.00
                                0.00      0.00      0.00

     XDM     stress (kbar)      0.00      0.00      0.00
                                0.00      0.00      0.00
                                0.00      0.00      0.00

     dft-nl  stress (kbar)      0.00      0.00      0.00
                                0.00      0.00      0.00
                                0.00      0.00      0.00

     TS-vdW  stress (kbar)      0.00      0.00      0.00
                                0.00      0.00      0.00
                                0.00      0.00      0.00



     Writing output data file ../../out/aiida.save/

     init_run     :    251.63s CPU    259.95s WALL (       1 calls)
     electrons    :   9953.83s CPU   9996.50s WALL (       1 calls)
     forces       :    143.64s CPU    144.27s WALL (       1 calls)
     stress       :    186.19s CPU    187.77s WALL (       1 calls)

     Called by init_run:
     wfcinit      :    244.24s CPU    251.46s WALL (       1 calls)
     wfcinit:atom :      0.21s CPU      0.32s WALL (       4 calls)
     wfcinit:wfcr :    242.82s CPU    249.76s WALL (       4 calls)
     potinit      :      1.54s CPU      1.61s WALL (       1 calls)
     hinit0       :      0.53s CPU      0.57s WALL (       1 calls)

     Called by electrons:
     c_bands      :   9007.61s CPU   9034.38s WALL (      15 calls)
     sum_band     :    856.56s CPU    866.46s WALL (      15 calls)
     v_of_rho     :      6.85s CPU      7.10s WALL (      15 calls)
     v_h          :      0.61s CPU      0.65s WALL (      15 calls)
     v_xc         :      7.07s CPU      7.32s WALL (      17 calls)
     newd         :     73.02s CPU     79.71s WALL (      15 calls)
     PAW_pot      :     13.94s CPU     13.96s WALL (      15 calls)
     mix_rho      :      2.15s CPU      2.20s WALL (      15 calls)

     Called by c_bands:
     init_us_2    :     12.75s CPU     12.80s WALL (     132 calls)
     cegterg      :   8976.64s CPU   9003.37s WALL (      60 calls)

     Called by sum_band:
     sum_band:wei :      0.01s CPU      0.01s WALL (      15 calls)
     sum_band:loo :    743.25s CPU    745.72s WALL (      15 calls)
     sum_band:buf :      2.84s CPU      2.84s WALL (      60 calls)
     sum_band:ini :      5.93s CPU      5.94s WALL (      60 calls)
     sum_band:cal :    499.34s CPU    499.89s WALL (      60 calls)
     sum_band:bec :      0.17s CPU      0.17s WALL (      60 calls)
     addusdens    :    111.43s CPU    118.78s WALL (      15 calls)
     addusd:skk   :      0.64s CPU      0.95s WALL (      45 calls)
     addusd:dgemm :     81.27s CPU     87.17s WALL (      45 calls)
     addusd:qvan2 :     28.58s CPU     28.60s WALL (      45 calls)

     Called by *egterg:
     cdiaghg      :     79.95s CPU     79.98s WALL (     449 calls)
     cegterg:over :   1122.88s CPU   1123.57s WALL (     393 calls)
     cegterg:upda :    669.84s CPU    671.30s WALL (     393 calls)
     cegterg:last :   1674.50s CPU   1674.95s WALL (     127 calls)
     h_psi        :   3813.80s CPU   3836.98s WALL (     457 calls)
     s_psi        :   1401.88s CPU   1403.50s WALL (     457 calls)
     g_psi        :      5.42s CPU      5.43s WALL (     393 calls)

     Called by h_psi:
     h_psi:calbec :   1358.61s CPU   1360.92s WALL (     457 calls)
     vloc_psi     :   1037.98s CPU   1055.99s WALL (     457 calls)
     add_vuspsi   :   1412.54s CPU   1413.39s WALL (     457 calls)

     General routines
     calbec       :   2024.82s CPU   2027.75s WALL (     537 calls)
     fft          :      5.84s CPU      6.20s WALL (     191 calls)
     ffts         :      0.58s CPU      0.60s WALL (      15 calls)
     fftw         :    970.93s CPU    984.24s WALL (   81616 calls)

     Parallel routines
     fft_scatt_xy :    226.06s CPU    228.06s WALL (   81822 calls)
     fft_scatt_yz :    110.00s CPU    115.98s WALL (   81822 calls)

     PAW routines
     PAW_pot      :     13.94s CPU     13.96s WALL (      15 calls)
     PAW_symme    :      0.05s CPU      0.06s WALL (      30 calls)

     PWSCF        :      2h55m CPU      2h56m WALL


   This run was terminated on:  19:42:15   3Apr2024            

=------------------------------------------------------------------------------=
   JOB DONE.
=------------------------------------------------------------------------------=
