   This run of MOLCAS is using the pymolcas driver

                             OPE
                             OPE          NMOL  CASOP  ENMOLC A   SO
                 OPE        NMOLC        AS  OP EN  MO LC     AS  OP
                OPENM       OL CA        SO  PE NM  OL CA     SOP EN
                OP EN      MO   LC       AS  OP ENMOL  CASO   PENMOL
                OP  EN     MO   LC       AS  OP EN     MO     LC ASO
               OP   E  NMOL  C  AS       OP  EN MO     LC     AS  OP
               OP  E   NMO   LC AS        OPEN  MO     LCASOP EN   M
               O  PEN   MO  LCA  SO
            OPE   NMO   L   CAS    OP
        OPENMOL  CASOP     ENMOL   CASOPE
     OPENMOLCA   SOPENMOLCASOPEN   MOLCASOPE
    OPENMOLCAS   OP           EN   MOL    CAS
    OPENMOLCAS       OP  ENM        O     LCA
    OPENMOLCAS    OPEN  MOLCASO     P  E  NMO
    OPENMOLCAS     OP               E  N  MOL
    OPENMOLCA   SO           PENM   O  L  CAS    OPEN    MO    LCAS
    OPENMOLCA   SOP           ENM   O  L  CAS   OP  EN  MOLC  AS   O
    OPENMOLCA   SOPE           NM      O  LCA   S      OP  EN MO
    OPENMOLC                AS         O  PEN   M      OL  CA  SOPE
    OPENMO        LCASOPE  NMOL        C  ASO   P      ENMOLC     AS
    OPE     NMO      LCA  SO     P     E   NM   OL  CA SO  PE N   MO
          OPENMOLCA            SOPE   NMO        LCAS  O    P  ENMO
     OPENMOLCASOPENMOLCASOPENMOLCASOPENMOLCA
        OPENMOLCASOPENMOLCASOPENMOLCASOPE
            OPENMOLCASOPENMOLCASOPENM
               OPENMOLCASOPENMOLCA        version: v20.10 ?
                   OPENMOLCASO
                       OPE                tag:

 OpenMolcas is free software; you can redistribute it and/or modify it
 under the terms of the GNU Lesser General Public License version 2.1.
 OpenMolcas is distributed in the hope that it will be useful, but it
 is provided "as is" and without any express or implied warranties.
 For more details see the full text of the license in the file
 LICENSE or in <http://www.gnu.org/licenses/>.

                 Copyright (C) The OpenMolcas Authors
           For the author list and the recommended citation,
                   consult the file CONTRIBUTORS.md

           *************************************************
           * pymolcas version py2.13                       *
           *   build 7d4e6aa3a62dfd03c2048a42281fd4ad      *
           *   (after the EMIL interpreter by V. Veryazov) *
           *************************************************

configuration info
------------------
Host name: build-node.computecanada.ca (Linux)
C Compiler ID: Intel
C flags: -O2 -march=core-avx2 -axCore-AVX512 -ftz -fp-speculation=safe -fp-model source -std=gnu99 -qopenmp
Fortran Compiler ID: Intel
Fortran flags: -O2 -march=core-avx2 -axCore-AVX512 -ftz -fp-speculation=safe -fp-model source  -fpp -i8 -r8 -heap-arrays -qopenmp
Definitions: _MOLCAS_;_I8_;_LINUX_;_GA_;_MOLCAS_MPP_;SCALAPACK;_MKL_;_FDE_
Parallel: ON (GA=ON)


   -----------------------------------------------------------------------------------------------------------------------------------
  |
  |           Project: inp
  |    Submitted from: /home/nike/Modeling_Matters/12546/Answer
  |      Scratch area: /tmp/inp
  |   Save outputs to: /home/nike/Modeling_Matters/12546/Answer
  |            Molcas: /cvmfs/soft.computecanada.ca/easybuild/software/2020/avx2/MPI/intel2020/openmpi4/openmolcas/20.10
  |
  | Scratch area is NOT empty
  |
  |    MOLCAS_DRIVER = /cvmfs/soft.computecanada.ca/easybuild/software/2020/avx2/MPI/intel2020/openmpi4/openmolcas/20.10/sbin/pymolcas
  |    MOLCAS_NPROCS = 1
  |    MOLCAS_SOURCE = /cvmfs/soft.computecanada.ca/easybuild/software/2020/avx2/MPI/intel2020/openmpi4/openmolcas/20.10
  | MOLCAS_STRUCTURE = 0
  |
   -----------------------------------------------------------------------------------------------------------------------------------

++ ---------   Input file   ---------

&GATEWAY
XBAS
C.STO-3G
H.STO-3G
O.STO-3G
End of basis
ZMAT
H1
C1 1 1.097
O1 2 1.343 1 111
H2 3 0.972 2 106.3 1 180
O2 2 1.202 3 124.9 4 0
End of z-matrix

&SEWARD

&SCF
 UHF

&RASSCF
  OUTOrbitals= Canonical
  LumOrb
  Symmetry= 1
  Spin= 0
  Charge= 0
  NACTEL=24
  NAC= 17
  Ras2= 0
  Frozen= 0

&MOTRA
  JobIph

&CCSDT
  CCT
  Triples
  3

-- ----------------------------------

--- Start Module: gateway at Sun Mar 10 16:16:56 2024 ---
 
()()()()()()()()()()()()()()()()()()()()()()()()()()()()()()()()()()()()()()()()()()()()()()()()()()

                                              &GATEWAY

                       only a single process is used, running in SERIAL mode
                      available to each process: 2.0 GB of memory, 32 threads
                                             pid: 32134
()()()()()()()()()()()()()()()()()()()()()()()()()()()()()()()()()()()()()()()()()()()()()()()()()()
 
 
++    Symmetry information:
      ---------------------
 
                    Character Table for C1 
 
                             E  
                    a        1  x, y, xy, Rz, z, xz, Ry, yz, Rx, I
--
 
 
++    Basis set information:
      ----------------------
 
 
      Basis set label: H.STO-3G.....
 
      Electronic valence basis set:
      ------------------
      Associated Effective Charge   1.000000 au
      Associated Actual Charge      1.000000 au
      Nuclear Model: Point charge
 
      Shell  nPrim  nBasis  Cartesian Spherical Contaminant
         s       3       1        X                  
 
 
      Basis set label: C.STO-3G.....
 
      Electronic valence basis set:
      ------------------
      Associated Effective Charge   6.000000 au
      Associated Actual Charge      6.000000 au
      Nuclear Model: Point charge
 
      Shell  nPrim  nBasis  Cartesian Spherical Contaminant
         s       6       2        X                  
         p       3       1        X                  
 
 
      Basis set label: O.STO-3G.....
 
      Electronic valence basis set:
      ------------------
      Associated Effective Charge   8.000000 au
      Associated Actual Charge      8.000000 au
      Nuclear Model: Point charge
 
      Shell  nPrim  nBasis  Cartesian Spherical Contaminant
         s       6       2        X                  
         p       3       1        X                  
 
 
      Basis set label: H.STO-3G.....
 
      Electronic valence basis set:
      ------------------
      Associated Effective Charge   1.000000 au
      Associated Actual Charge      1.000000 au
      Nuclear Model: Point charge
 
      Shell  nPrim  nBasis  Cartesian Spherical Contaminant
         s       3       1        X                  
 
 
      Basis set label: O.STO-3G.....
 
      Electronic valence basis set:
      ------------------
      Associated Effective Charge   8.000000 au
      Associated Actual Charge      8.000000 au
      Nuclear Model: Point charge
 
      Shell  nPrim  nBasis  Cartesian Spherical Contaminant
         s       6       2        X                  
         p       3       1        X                  
--
 
 
++    Molecular structure info:
      -------------------------
 
                    ************************************************ 
                    **** Cartesian Coordinates / Bohr, Angstrom **** 
                    ************************************************ 
 
     Center  Label                x              y              z                     x              y              z
        1      H1               0.000000       0.000000       0.000000              0.000000       0.000000       0.000000
        2      C1               0.000000       0.000000       2.073030              0.000000       0.000000       1.097000
        3      O1               2.369336       0.000000       2.982532              1.253799       0.000000       1.578288
        4      H2               2.218830       0.000000       4.813170              1.174154       0.000000       2.547020
        5      O2              -1.880898       0.000000       3.346493             -0.995329       0.000000       1.770888
 
                    *************************************** 
                    *    InterNuclear Distances / Bohr    * 
                    *************************************** 
 
               1 H1            2 C1            3 O1            4 H2            5 O2    
    1 H1       0.000000
    2 C1       2.073030        0.000000
    3 O1       3.809101        2.537902        0.000000
    4 H2       5.299982        3.525844        1.836814        0.000000
    5 O2       3.838854        2.271451        4.265789        4.354183        0.000000
 
                    ******************************************* 
                    *    InterNuclear Distances / Angstrom    * 
                    ******************************************* 
 
               1 H1            2 C1            3 O1            4 H2            5 O2    
    1 H1       0.000000
    2 C1       1.097000        0.000000
    3 O1       2.015690        1.343000        0.000000
    4 H2       2.804630        1.865796        0.972000        0.000000
    5 O2       2.031434        1.202000        2.257358        2.304135        0.000000
 
                    ************************************** 
                    *    Valence Bond Angles / Degree    * 
                    ************************************** 
                          Atom centers                 Phi
                      1 H1       2 C1       3 O1       111.00
                      1 H1       2 C1       5 O2       124.10
                      3 O1       2 C1       5 O2       124.90
                      2 C1       3 O1       4 H2       106.30
 
           ***************************************************************
           *              Valence Dihedral Angles / Degree               *
           ***************************************************************
                    Atom centers                       Phi1     Phi2     Theta 
           1 H1       2 C1       3 O1       4 H2        111.00   106.30  -180.00
           4 H2       3 O1       2 C1       5 O2        106.30   124.90     0.00
--
 
 
            Nuclear Potential Energy             70.20979754 au
 
--- Stop Module: gateway at Sun Mar 10 16:16:56 2024 /rc=_RC_ALL_IS_WELL_ ---
*** files: xmldump
    saved to directory /home/nike/Modeling_Matters/12546/Answer

--- Start Module: seward at Sun Mar 10 16:16:56 2024 ---
 
()()()()()()()()()()()()()()()()()()()()()()()()()()()()()()()()()()()()()()()()()()()()()()()()()()

                                              &SEWARD

                       only a single process is used, running in SERIAL mode
                      available to each process: 2.0 GB of memory, 32 threads
                                             pid: 32172
()()()()()()()()()()()()()()()()()()()()()()()()()()()()()()()()()()()()()()()()()()()()()()()()()()
 
               SEWARD will generate:
                  Multipole Moment integrals up to order  2
                  Kinetic Energy integrals
                  Nuclear Attraction integrals (point charge)
                  One-Electron Hamiltonian integrals
                  Velocity integrals
                  Orbital angular momentum around ( 0.2184  0.0000  2.8466 )
                  Velocity quadrupole around ( 0.2184  0.0000  2.8466 )
                  Two-Electron Repulsion integrals
 
                   Integrals are discarded if absolute value <: 0.10E-13
                   Integral cutoff threshold is set to       <: 0.10E-15
 
            Nuclear Potential Energy             70.20979754 au
 
 
      Basis set specifications :
      Symmetry species         a  
      Basis functions           17
 
 
  Input file to MOLDEN was generated!
 
--- Stop Module: seward at Sun Mar 10 16:16:57 2024 /rc=_RC_ALL_IS_WELL_ ---
*** files: inp.GssOrb inp.guessorb.h5 inp.guessorb.molden xmldump
    saved to directory /home/nike/Modeling_Matters/12546/Answer

--- Start Module: scf at Sun Mar 10 16:16:57 2024 ---
 
()()()()()()()()()()()()()()()()()()()()()()()()()()()()()()()()()()()()()()()()()()()()()()()()()()

                                                &SCF

                       only a single process is used, running in SERIAL mode
                      available to each process: 2.0 GB of memory, 32 threads
                                             pid: 32220
()()()()()()()()()()()()()()()()()()()()()()()()()()()()()()()()()()()()()()()()()()()()()()()()()()
 
++    Input section:
      --------------
 
      Header of the integral files:
      
       Integrals generated by Gateway/Seward, Sun Mar 10 16:16:57 2024
 
 
      Cartesian coordinates in Angstrom:
      -----------------------------------------------------
      No.  Label        X            Y            Z        
      -----------------------------------------------------
       1   H1         0.00000000   0.00000000   0.00000000
       2   C1         0.00000000   0.00000000   1.09700000
       3   O1         1.25379851   0.00000000   1.57828816
       4   H2         1.17415428   0.00000000   2.54701970
       5   O2        -0.99532852   0.00000000   1.77088807
      -----------------------------------------------------
      Nuclear repulsion energy =   70.20979754
--
 
++    Orbital specifications:
      -----------------------
 
      Symmetry species               1
                                     a
      Frozen orbitals                0
      Start temperature = 0.500
      End temperature   = 0.010
      Temperature Factor= 0.460
      Deleted orbitals               0
      Total number of orbitals      17
      Number of basis functions     17
--
 
      Molecular charge                           0.000
 
++    Optimization specifications:
      ----------------------------
 
      SCF Algorithm: Conventional USCF
      D(i)-D(i-1) density differences are used
      Number of density matrices in core                5
      Maximum number of NDDO SCF iterations           400
      Maximum number of HF SCF iterations             400
      Threshold for SCF energy change            0.10E-08
      Threshold for density matrix               0.10E-03
      Threshold for Fock matrix                  0.15E-03
      Threshold for linear dependence            0.10E-08
      Threshold at which DIIS is turned on       0.15E+00
      Threshold at which QNR/C2DIIS is turned on 0.75E-01
      Threshold for Norm(delta) (QNR/C2DIIS)     0.20E-04
      DIIS extrapolation of the SCF procedure
      All orbitals punched on: UHFORB
--
 
      Input vectors read from INPORB
      Orbital file label: * RASSCF canonical orbitals for CASPT2
 
 
++ Convergence information
                               UHF SCF        iterations: Energy and convergence statistics
 
Iter     Tot. SCF        One-elec.       Two-elec.     Energy      Max Dij or  Max Fij      DNorm      TNorm      AccCon     Time
         Energy          Energy          Energy        Change      Delta Norm                                                in Sec.
   1  -183.092491804  -393.948833696   140.646544350   0.00E+00    0.14E+00*   0.11E+00*    0.71E+01   0.50E+02   None         0.
   2  -184.947978989  -396.287130046   141.129353513  -0.19E+01*   0.21E+00*   0.16E+00*    0.29E+01   0.50E+02   EDIIS        0.
   3  -185.922851524  -396.295214160   140.162565093  -0.97E+00*   0.12E+00*   0.79E-01*    0.18E+01   0.50E+02   EDIIS        0.
   4  -186.189307586  -396.379050658   139.979945529  -0.27E+00*   0.22E+00*   0.81E-01*    0.86E+00   0.50E+02   EDIIS        0.
   5  -186.206925810  -396.315303852   139.898580499  -0.18E-01*   0.79E-01*   0.70E-01*    0.59E+00   0.50E+02   EDIIS        0.
   6  -186.212526450  -396.299981340   139.877657347  -0.56E-02*   0.58E-01*   0.42E-01*    0.36E+00   0.50E+02   EDIIS        0.
 
       Fermi aufbau procedure completed!
      nOcc(alpha)=   12
      nOcc(beta) =   12
 
   7  -186.214692867  -396.304901623   139.880411213  -0.22E-02*   0.21E-01*   0.21E-01*    0.15E+00   0.50E+02   EDIIS        0.
   8  -186.215012256  -396.297225696   139.872415898  -0.32E-03*   0.15E-01*   0.99E-02*    0.97E-01   0.50E+02   EDIIS        0.
   9  -186.215165550  -396.298560350   139.873597256  -0.15E-03*   0.48E-02*   0.49E-02*    0.36E-01   0.50E+02   EDIIS        0.
  10  -186.215186421  -396.296491624   139.871507660  -0.21E-04*   0.44E-02*   0.25E-02*    0.24E-01   0.50E+02   EDIIS        0.
  11  -186.215195487  -396.296673622   139.871680592  -0.91E-05*   0.93E-03*   0.43E-03*    0.10E-01   0.50E+02   c2DIIS       0.
  12  -186.215198089  -396.296269951   139.871274319  -0.26E-05*   0.75E-03*   0.13E-03     0.24E-02   0.50E+02   QNRc2DIIS    0.
  13  -186.215198296  -396.296052590   139.871056751  -0.21E-06*   0.11E-02*   0.98E-04     0.14E-02   0.50E+02   QNRc2DIIS    0.
  14  -186.215198385  -396.295788843   139.870792915  -0.89E-07*   0.14E-03*   0.34E-04     0.18E-02   0.50E+02   QNRc2DIIS    0.
  15  -186.215198389  -396.295798905   139.870802973  -0.43E-08*   0.16E-04    0.19E-05     0.19E-03   0.50E+02   QNRc2DIIS    0.
  16  -186.215198389  -396.295797735   139.870801803  -0.38E-10    0.10E-05    0.16E-06     0.31E-04   0.50E+02   QNRc2DIIS    0.
 
       Convergence after 16 Macro Iterations
--
 
 *****************************************************************************************************************************
 *                                                                                                                           *
 *                                             SCF/KS-DFT Program, Final results                                             *
 *                                                                                                                           *
 *                                                                                                                           *
 *                                                                                                                           *
 *                                                       Final Results                                                       *
 *                                                                                                                           *
 *****************************************************************************************************************************
 
::    Total SCF energy                               -186.2151983891
      One-electron energy                            -396.2957977354
      Two-electron energy                             139.8708018031
      Nuclear repulsion energy                         70.2097975432
      Kinetic energy (interpolated)                   184.6727559820
      Virial theorem                                    1.0083523008
      Total spin, S(S+1)                               -0.0000000000
      Total spin, S                                    -0.0000000000
      Max non-diagonal density matrix element           0.0000003569
      Max non-diagonal Fock matrix element              0.0000000836
 
 
      All orbitals with orbital energies smaller than  E(LUMO)+0.5 are printed
 
++    Molecular orbitals:
      -------------------
 
      Title: UHF orbitals (alpha)

      Molecular orbitals for symmetry species 1: a  
 
          Orbital            1         2         3         4         5         6         7         8         9        10    
          Energy          -20.3236  -20.2744  -11.1845   -1.4004   -1.2954   -0.8100   -0.6395   -0.5995   -0.5495   -0.4745
          Occ. No.          1.0000    1.0000    1.0000    1.0000    1.0000    1.0000    1.0000    1.0000    1.0000    1.0000
 
        1 H1     1s         0.0003    0.0002   -0.0065    0.0325    0.0104   -0.2819   -0.2682    0.0286    0.0000    0.2445
        2 C1     1s         0.0005    0.0005    0.9927   -0.1323   -0.0430    0.1572   -0.0105   -0.0785    0.0000   -0.0025
        3 C1     2s        -0.0049   -0.0075    0.0318    0.2992    0.0952   -0.5090    0.0541    0.2574    0.0000    0.0136
        4 C1     2px       -0.0045    0.0054   -0.0002   -0.0023   -0.2093   -0.1316    0.2853   -0.2324    0.0000    0.2496
        5 C1     2py        0.0000    0.0000    0.0000    0.0000   -0.0000    0.0000   -0.0000   -0.0000    0.5194   -0.0000
        6 C1     2pz       -0.0017   -0.0038    0.0003    0.0918    0.0500    0.2249    0.4313    0.1575    0.0000   -0.1932
        7 O1     1s         0.9941   -0.0008    0.0003   -0.1634    0.1594   -0.0379    0.0365    0.0635    0.0000    0.0770
        8 O1     2s         0.0268    0.0003   -0.0044    0.5748   -0.5765    0.1637   -0.1806   -0.3085   -0.0000   -0.4063
        9 O1     2px       -0.0039   -0.0003    0.0023   -0.1116    0.0577    0.1779   -0.4061   -0.1848   -0.0000   -0.4328
       10 O1     2py       -0.0000   -0.0000   -0.0000    0.0000   -0.0000    0.0000   -0.0000   -0.0000    0.6250   -0.0000
       11 O1     2pz        0.0020    0.0005    0.0012    0.0326   -0.0428    0.3130   -0.1920    0.4073    0.0000    0.3961
       12 H2     1s        -0.0058   -0.0001   -0.0015    0.0879   -0.1023    0.2581   -0.2067    0.2597    0.0000    0.2866
       13 O2     1s         0.0008    0.9942    0.0001   -0.1333   -0.1744   -0.0693    0.0046    0.1084    0.0000   -0.0449
       14 O2     2s         0.0002    0.0265   -0.0056    0.4538    0.6108    0.2933   -0.0217   -0.5488   -0.0000    0.2537
       15 O2     2px        0.0004    0.0050   -0.0012    0.1098    0.0989   -0.0532    0.2243    0.4255    0.0000   -0.3415
       16 O2     2py       -0.0000   -0.0000    0.0000    0.0000    0.0000   -0.0000   -0.0000   -0.0000    0.3832   -0.0000
       17 O2     2pz        0.0005   -0.0033    0.0007   -0.0597   -0.0745    0.1151    0.2890   -0.2330    0.0000    0.3372
 
          Orbital           11        12        13        14        15        16    
          Energy           -0.3649   -0.3609    0.3074    0.5678    0.6755    0.7309
          Occ. No.          1.0000    1.0000    0.0000    0.0000    0.0000    0.0000
 
        1 H1     1s         0.0000    0.3026    0.0000   -0.5641   -0.9309    0.5610
        2 C1     1s        -0.0000   -0.0073   -0.0000   -0.1043   -0.1808   -0.0610
        3 C1     2s        -0.0000    0.0106    0.0000    0.6051    1.1332    0.3209
        4 C1     2px        0.0000   -0.0281    0.0000    0.3014   -0.0270    0.6360
        5 C1     2py        0.2906    0.0000   -0.8501    0.0000   -0.0000    0.0000
        6 C1     2pz        0.0000   -0.0870    0.0000   -0.1786   -0.3990    0.8983
        7 O1     1s        -0.0000    0.0032    0.0000    0.1191   -0.0106    0.0647
        8 O1     2s         0.0000   -0.0213   -0.0000   -0.7812    0.0895   -0.4286
        9 O1     2px        0.0000    0.3998    0.0000    0.3538    0.2587    0.6776
       10 O1     2py       -0.7239    0.0000    0.3353   -0.0000    0.0000   -0.0000
       11 O1     2pz        0.0000   -0.0027    0.0000   -0.5492    0.5779    0.3167
       12 H2     1s        -0.0000    0.0589    0.0000    0.9653   -0.5721   -0.2185
       13 O2     1s         0.0000    0.0033   -0.0000    0.0104    0.0398    0.0185
       14 O2     2s        -0.0000   -0.0136    0.0000   -0.0401   -0.2586   -0.1247
       15 O2     2px        0.0000    0.5087   -0.0000   -0.0816   -0.2280   -0.3188
       16 O2     2py        0.6221   -0.0000    0.7180   -0.0000    0.0000   -0.0000
       17 O2     2pz        0.0000    0.7182   -0.0000   -0.0289    0.2969   -0.2025
--
 
 
      All orbitals with orbital energies smaller than  E(LUMO)+0.5 are printed
 
++    Molecular orbitals:
      -------------------
 
      Title: UHF orbitals (beta)

      Molecular orbitals for symmetry species 1: a  
 
          Orbital            1         2         3         4         5         6         7         8         9        10    
          Energy          -20.3236  -20.2744  -11.1845   -1.4004   -1.2954   -0.8100   -0.6395   -0.5995   -0.5495   -0.4745
          Occ. No.          1.0000    1.0000    1.0000    1.0000    1.0000    1.0000    1.0000    1.0000    1.0000    1.0000
 
        1 H1     1s         0.0003    0.0002   -0.0065    0.0325    0.0104   -0.2819   -0.2682    0.0286    0.0000    0.2445
        2 C1     1s         0.0005    0.0005    0.9927   -0.1323   -0.0430    0.1572   -0.0105   -0.0785    0.0000   -0.0025
        3 C1     2s        -0.0049   -0.0075    0.0318    0.2992    0.0952   -0.5090    0.0541    0.2574    0.0000    0.0136
        4 C1     2px       -0.0045    0.0054   -0.0002   -0.0023   -0.2093   -0.1316    0.2853   -0.2324    0.0000    0.2496
        5 C1     2py        0.0000    0.0000    0.0000    0.0000   -0.0000    0.0000   -0.0000   -0.0000    0.5194   -0.0000
        6 C1     2pz       -0.0017   -0.0038    0.0003    0.0918    0.0500    0.2249    0.4313    0.1575    0.0000   -0.1932
        7 O1     1s         0.9941   -0.0008    0.0003   -0.1634    0.1594   -0.0379    0.0365    0.0635    0.0000    0.0770
        8 O1     2s         0.0268    0.0003   -0.0044    0.5748   -0.5765    0.1637   -0.1806   -0.3085   -0.0000   -0.4063
        9 O1     2px       -0.0039   -0.0003    0.0023   -0.1116    0.0577    0.1779   -0.4061   -0.1848   -0.0000   -0.4328
       10 O1     2py       -0.0000   -0.0000   -0.0000    0.0000   -0.0000    0.0000   -0.0000   -0.0000    0.6250   -0.0000
       11 O1     2pz        0.0020    0.0005    0.0012    0.0326   -0.0428    0.3130   -0.1920    0.4073    0.0000    0.3961
       12 H2     1s        -0.0058   -0.0001   -0.0015    0.0879   -0.1023    0.2581   -0.2067    0.2597    0.0000    0.2866
       13 O2     1s         0.0008    0.9942    0.0001   -0.1333   -0.1744   -0.0693    0.0046    0.1084    0.0000   -0.0449
       14 O2     2s         0.0002    0.0265   -0.0056    0.4538    0.6108    0.2933   -0.0217   -0.5488   -0.0000    0.2537
       15 O2     2px        0.0004    0.0050   -0.0012    0.1098    0.0989   -0.0532    0.2243    0.4255    0.0000   -0.3415
       16 O2     2py       -0.0000   -0.0000    0.0000    0.0000    0.0000   -0.0000   -0.0000   -0.0000    0.3832   -0.0000
       17 O2     2pz        0.0005   -0.0033    0.0007   -0.0597   -0.0745    0.1151    0.2890   -0.2330    0.0000    0.3372
 
          Orbital           11        12        13        14        15        16    
          Energy           -0.3649   -0.3609    0.3074    0.5678    0.6755    0.7309
          Occ. No.          1.0000    1.0000    0.0000    0.0000    0.0000    0.0000
 
        1 H1     1s         0.0000    0.3026    0.0000   -0.5641   -0.9309    0.5610
        2 C1     1s        -0.0000   -0.0073   -0.0000   -0.1043   -0.1808   -0.0610
        3 C1     2s        -0.0000    0.0106    0.0000    0.6051    1.1332    0.3209
        4 C1     2px        0.0000   -0.0281    0.0000    0.3014   -0.0270    0.6360
        5 C1     2py        0.2906    0.0000   -0.8501    0.0000   -0.0000    0.0000
        6 C1     2pz        0.0000   -0.0870    0.0000   -0.1786   -0.3990    0.8983
        7 O1     1s        -0.0000    0.0032    0.0000    0.1191   -0.0106    0.0647
        8 O1     2s         0.0000   -0.0213   -0.0000   -0.7812    0.0895   -0.4286
        9 O1     2px        0.0000    0.3998    0.0000    0.3538    0.2587    0.6776
       10 O1     2py       -0.7239    0.0000    0.3353   -0.0000    0.0000   -0.0000
       11 O1     2pz        0.0000   -0.0027    0.0000   -0.5492    0.5779    0.3167
       12 H2     1s        -0.0000    0.0589    0.0000    0.9653   -0.5721   -0.2185
       13 O2     1s         0.0000    0.0033   -0.0000    0.0104    0.0398    0.0185
       14 O2     2s        -0.0000   -0.0136    0.0000   -0.0401   -0.2586   -0.1247
       15 O2     2px        0.0000    0.5087   -0.0000   -0.0816   -0.2280   -0.3188
       16 O2     2py        0.6221   -0.0000    0.7180   -0.0000    0.0000   -0.0000
       17 O2     2pz        0.0000    0.7182   -0.0000   -0.0289    0.2969   -0.2025
--
 
 
++    Molecular charges:
      ------------------
 
      Mulliken charges per centre and basis function type
      ---------------------------------------------------
 
                            H1                      C1                      O1                      H2                      O2    
                     alpha        beta       alpha        beta       alpha        beta       alpha        beta       alpha        beta
      1s           0.4648      0.4648      0.9969      0.9969      0.9988      0.9988      0.3892      0.3892      0.9990      0.9990
      2s           0.0000      0.0000      0.5402      0.5402      0.9085      0.9085      0.0000      0.0000      0.9318      0.9318
      2px          0.0000      0.0000      0.3890      0.3890      0.7045      0.7045      0.0000      0.0000      0.7396      0.7396
      2pz          0.0000      0.0000      0.4855      0.4855      0.6056      0.6056      0.0000      0.0000      0.8467      0.8467
      2py          0.0000      0.0000      0.4543      0.4543      0.9316      0.9316      0.0000      0.0000      0.6142      0.6142
      Total        0.4648      0.4648      2.8659      2.8659      4.1489      4.1489      0.3892      0.3892      4.1312      4.1312
      Total              0.9296                  5.7318                  8.2979                  0.7783                  8.2624
 
      Charge            0.0704                  0.2682                 -0.2979                  0.2217                 -0.2624
 
      Total electronic charge=   24.000000
 
      Total            charge=   -0.000000
--
 
 
++    Molecular orbitals:
      -------------------
 
      Title: Natural orbitals

      Molecular orbitals for symmetry species 1: a  
 
          Orbital            1         2         3         4         5         6         7         8         9        10    
          Energy          -20.3236  -20.2744  -11.1845   -1.4004   -1.2954   -0.8100   -0.6395   -0.5995   -0.5495   -0.4745
          Occ. No.          2.0000    2.0000    2.0000    2.0000    2.0000    2.0000    2.0000    2.0000    2.0000    2.0000
 
        1 H1     1s         0.0003    0.0002   -0.0065    0.0325   -0.0104   -0.2819    0.2682   -0.0286   -0.0000   -0.2445
        2 C1     1s         0.0005    0.0005    0.9927   -0.1323    0.0430    0.1572    0.0105    0.0785    0.0000    0.0025
        3 C1     2s        -0.0049   -0.0075    0.0318    0.2992   -0.0952   -0.5090   -0.0541   -0.2574   -0.0000   -0.0136
        4 C1     2px       -0.0045    0.0054   -0.0002   -0.0023    0.2093   -0.1316   -0.2853    0.2324    0.0000   -0.2496
        5 C1     2py        0.0000    0.0000    0.0000    0.0000   -0.0000   -0.0000    0.0000    0.0000    0.5194    0.0000
        6 C1     2pz       -0.0017   -0.0038    0.0003    0.0918   -0.0500    0.2249   -0.4313   -0.1575   -0.0000    0.1932
        7 O1     1s         0.9941   -0.0008    0.0003   -0.1634   -0.1594   -0.0379   -0.0365   -0.0635    0.0000   -0.0770
        8 O1     2s         0.0268    0.0003   -0.0044    0.5748    0.5765    0.1637    0.1806    0.3085   -0.0000    0.4063
        9 O1     2px       -0.0039   -0.0003    0.0023   -0.1116   -0.0577    0.1779    0.4061    0.1848   -0.0000    0.4328
       10 O1     2py       -0.0000   -0.0000   -0.0000   -0.0000    0.0000    0.0000   -0.0000   -0.0000    0.6250   -0.0000
       11 O1     2pz        0.0020    0.0005    0.0012    0.0326    0.0428    0.3130    0.1920   -0.4073    0.0000   -0.3961
       12 H2     1s        -0.0058   -0.0001   -0.0015    0.0879    0.1023    0.2581    0.2067   -0.2597    0.0000   -0.2866
       13 O2     1s         0.0008    0.9942    0.0001   -0.1333    0.1744   -0.0693   -0.0046   -0.1084   -0.0000    0.0449
       14 O2     2s         0.0002    0.0265   -0.0056    0.4538   -0.6108    0.2933    0.0217    0.5488    0.0000   -0.2537
       15 O2     2px        0.0004    0.0050   -0.0012    0.1098   -0.0989   -0.0532   -0.2243   -0.4255   -0.0000    0.3415
       16 O2     2py       -0.0000    0.0000    0.0000    0.0000   -0.0000   -0.0000    0.0000    0.0000    0.3832    0.0000
       17 O2     2pz        0.0005   -0.0033    0.0007   -0.0597    0.0745    0.1151   -0.2890    0.2330   -0.0000   -0.3372
 
          Orbital           11        12        13        14        15        16        17    
          Energy           -0.3649   -0.3609    0.3074    0.5678    0.6755    0.7309    0.9745
          Occ. No.          2.0000    2.0000    0.0000    0.0000    0.0000    0.0000    0.0000
 
        1 H1     1s        -0.0000    0.3026    0.0000    0.5641    0.9309   -0.5610    0.2230
        2 C1     1s        -0.0000   -0.0073   -0.0000    0.1043    0.1808    0.0610   -0.0684
        3 C1     2s        -0.0000    0.0106    0.0000   -0.6051   -1.1332   -0.3209    0.5093
        4 C1     2px        0.0000   -0.0281    0.0000   -0.3014    0.0270   -0.6360   -1.0432
        5 C1     2py        0.2907    0.0000   -0.8501   -0.0000    0.0000   -0.0000   -0.0000
        6 C1     2pz        0.0000   -0.0870    0.0000    0.1786    0.3990   -0.8983    0.6654
        7 O1     1s        -0.0000    0.0032    0.0000   -0.1191    0.0106   -0.0647   -0.0147
        8 O1     2s         0.0000   -0.0213   -0.0000    0.7812   -0.0895    0.4286    0.1079
        9 O1     2px       -0.0000    0.3998    0.0000   -0.3538   -0.2587   -0.6776   -0.1112
       10 O1     2py       -0.7239   -0.0000    0.3353    0.0000   -0.0000    0.0000    0.0000
       11 O1     2pz        0.0000   -0.0027    0.0000    0.5492   -0.5779   -0.3167   -0.3452
       12 H2     1s        -0.0000    0.0589    0.0000   -0.9653    0.5721    0.2185    0.1384
       13 O2     1s        -0.0000    0.0033   -0.0000   -0.0104   -0.0398   -0.0185    0.1124
       14 O2     2s         0.0000   -0.0137    0.0000    0.0401    0.2586    0.1247   -0.8626
       15 O2     2px       -0.0000    0.5087   -0.0000    0.0816    0.2280    0.3188   -0.7337
       16 O2     2py        0.6221    0.0000    0.7180    0.0000   -0.0000    0.0000    0.0000
       17 O2     2pz       -0.0000    0.7182   -0.0000    0.0289   -0.2968    0.2025    0.5145
--
 
 
++    Molecular properties:
      ---------------------
 
      Charge (e):
                      =   -0.0000
      Dipole Moment (Debye):
      Origin of the operator (Ang)=    0.0000    0.0000    0.0000
                   X=  7.8323E-01               Y= -9.4953E-17               Z=  9.1940E-02           Total=  7.8861E-01
      Quadrupole Moment (Debye*Ang):
      Origin of the operator (Ang)=    0.1156    0.0000    1.5064
                  XX= -1.9154E+01              XY=  2.7153E-17              XZ=  2.1390E+00              YY= -1.4779E+01
                  YZ=  1.2810E-17              ZZ= -1.2990E+01
      In traceless form (Debye*Ang)
                  XX= -5.2697E+00              XY=  4.0729E-17              XZ=  3.2085E+00              YY=  1.2933E+00
                  YZ=  1.9214E-17              ZZ=  3.9765E+00
--
 
 
  Input file to MOLDEN was generated!
 
 ###############################################################################
 ###############################################################################
 ###                                                                         ###
 ###                                                                         ###
 ###    WARNING: RunFile label nBas                                          ###
 ###    was used       73 times                                              ###
 ###                                                                         ###
 ###                                                                         ###
 ###############################################################################
 ###############################################################################
--- Stop Module: scf at Sun Mar 10 16:16:58 2024 /rc=_RC_ALL_IS_WELL_ ---
*** files: inp.scf.molden inp.scf.h5 inp.UhfOrb inp.UnaOrb xmldump
    saved to directory /home/nike/Modeling_Matters/12546/Answer

--- Start Module: rasscf at Sun Mar 10 16:16:58 2024 ---
 
()()()()()()()()()()()()()()()()()()()()()()()()()()()()()()()()()()()()()()()()()()()()()()()()()()

                                              &RASSCF

                       only a single process is used, running in SERIAL mode
                      available to each process: 2.0 GB of memory, 32 threads
                                             pid: 32269
()()()()()()()()()()()()()()()()()()()()()()()()()()()()()()()()()()()()()()()()()()()()()()()()()()
 
  ****************************************************
  ChkIfKey Warning: The following line seems intended
  to give some keyword input, but was not recognized:
  'NAC                             '
  Spelling or syntactic mistake? Ignored!
  ****************************************************
 ###############################################################################
 ###############################################################################
 ###                                                                         ###
 ###                                                                         ###
 ###    WARNING: The number of inactive orbitals is zero. Do                 ###
 ###    you really want this?                                                ###
 ###                                                                         ###
 ###                                                                         ###
 ###############################################################################
 ###############################################################################
 
 ********************* ERROR **********************
 ###############################################################################
 ###############################################################################
 ###                                                                         ###
 ###                                                                         ###
 ###    ERROR: Too many active electrons.                                    ###
 ###                                                                         ###
 ###                                                                         ###
 ###############################################################################
 ###############################################################################
 Too many active electrons NACTEL=    24
 Cannot be more than 2*Nr of active orbitals=     0
 **************************************************
 
 ********************* ERROR **********************
 ###############################################################################
 ###############################################################################
 ###                                                                         ###
 ###                                                                         ###
 ###    ERROR: Too many active electrons.                                    ###
 ###                                                                         ###
 ###                                                                         ###
 ###############################################################################
 ###############################################################################
 Too many active electrons NACTEL=      24
 (Incompatible with RAS restrictions).
 **************************************************
--- Stop Module: rasscf at Sun Mar 10 16:16:58 2024 /rc=_RC_INPUT_ERROR_ ---
*** files: xmldump
    saved to directory /home/nike/Modeling_Matters/12546/Answer

.####################.
.# User input error #.
.####################.

    Timing: Wall=1.81 User=4.20 System=1.17
