[Molden Format]
[N_ATOMS]
                     5
[ATOMS] (AU)
H1          1      1           0.00000000      0.00000000      0.00000000
C1          2      6           0.00000000      0.00000000      2.07302956
O1          3      8           2.36933580      0.00000000      2.98253236
H2          4      1           2.21883002      0.00000000      4.81316966
O2          5      8          -1.88089831      0.00000000      3.34649345
[CHARGE] (MULLIKEN)
  0.000000000000000E+000
  0.000000000000000E+000
  0.000000000000000E+000
  0.000000000000000E+000
  0.000000000000000E+000
[GTO] (AU)
   1
   s   3
  0.342525091E+01  0.154328971E+00
  0.623913730E+00  0.535328142E+00
  0.168855400E+00  0.444634542E+00
 
   2
   s   3
  0.716168370E+02  0.154328970E+00
  0.130450960E+02  0.535328140E+00
  0.353051220E+01  0.444634540E+00
   s   3
  0.294124940E+01 -0.999672301E-01
  0.683483100E+00  0.399512830E+00
  0.222289900E+00  0.700115471E+00
   p   3
  0.294124940E+01  0.155916272E+00
  0.683483100E+00  0.607683728E+00
  0.222289900E+00  0.391957395E+00
 
   3
   s   3
  0.130709320E+03  0.154328969E+00
  0.238088610E+02  0.535328136E+00
  0.644360830E+01  0.444634536E+00
   s   3
  0.503315130E+01 -0.999672287E-01
  0.116959610E+01  0.399512825E+00
  0.380389000E+00  0.700115461E+00
   p   3
  0.503315130E+01  0.155916268E+00
  0.116959610E+01  0.607683714E+00
  0.380389000E+00  0.391957386E+00
 
   4
   s   3
  0.342525091E+01  0.154328971E+00
  0.623913730E+00  0.535328142E+00
  0.168855400E+00  0.444634542E+00
 
   5
   s   3
  0.130709320E+03  0.154328969E+00
  0.238088610E+02  0.535328136E+00
  0.644360830E+01  0.444634536E+00
   s   3
  0.503315130E+01 -0.999672287E-01
  0.116959610E+01  0.399512825E+00
  0.380389000E+00  0.700115461E+00
   p   3
  0.503315130E+01  0.155916268E+00
  0.116959610E+01  0.607683714E+00
  0.380389000E+00  0.391957386E+00
 
[MO]
Sym=     1a  
Ene=   -20.2890
Spin= Alpha
Occup=    2.00000
   1         0.00022091
   2         0.00195333
   3         0.00179734
   4         0.00002179
   5         0.00000000
   6         0.00065782
   7         0.77925890
   8         0.01591085
   9        -0.00003411
  10        -0.00000000
  11         0.00000871
  12         0.00118509
  13         0.61836572
  14         0.01263405
  15         0.00004113
  16         0.00000000
  17        -0.00001045
Sym=     2a  
Ene=   -20.2880
Spin= Alpha
Occup=    2.00000
   1         0.00002201
   2         0.00059658
   3         0.00048767
   4        -0.00127241
   5        -0.00000000
   6         0.00032721
   7        -0.61842167
   8        -0.01256160
   9        -0.00001835
  10         0.00000000
  11        -0.00000189
  12        -0.00083998
  13         0.77932795
  14         0.01583775
  15        -0.00000758
  16         0.00000000
  17        -0.00000872
Sym=     3a  
Ene=   -10.9200
Spin= Alpha
Occup=    2.00000
   1         0.00325923
   2         0.99307102
   3         0.02296830
   4        -0.00002363
   5        -0.00000000
   6         0.00003147
   7        -0.00373287
   8         0.00363646
   9        -0.00202518
  10         0.00000000
  11        -0.00076481
  12         0.00072164
  13        -0.00533724
  14         0.00548322
  15         0.00267269
  16        -0.00000000
  17        -0.00180932
Sym=     4a  
Ene=    -1.4857
Spin= Alpha
Occup=    2.00000
   1         0.08724206
   2        -0.13765723
   3         0.29097118
   4         0.01960855
   5        -0.00000000
   6         0.05205190
   7        -0.17522669
   8         0.59176540
   9        -0.05128324
  10         0.00000000
  11         0.01558538
  12         0.16037386
  13        -0.12409764
  14         0.42052351
  15         0.05292746
  16         0.00000000
  17        -0.02184748
Sym=     5a  
Ene=    -1.2650
Spin= Alpha
Occup=    2.00000
   1         0.02839929
   2        -0.05072692
   3         0.10339322
   4        -0.15899194
   5         0.00000000
   6         0.02559330
   7         0.14529223
   8        -0.52237888
   9        -0.00601765
  10         0.00000000
  11        -0.01879118
  12        -0.12446981
  13        -0.19722247
  14         0.70991563
  15         0.02159401
  16        -0.00000000
  17        -0.03511874
Sym=     6a  
Ene=    -0.7876
Spin= Alpha
Occup=    2.00000
   1        -0.43071195
   2         0.14209745
   3        -0.40759958
   4        -0.04747245
   5         0.00000000
   6         0.23122896
   7        -0.03559984
   8         0.14825161
   9         0.13510847
  10         0.00000000
  11         0.26792731
  12         0.19134546
  13        -0.07520403
  14         0.32689096
  15        -0.07361410
  16         0.00000000
  17         0.16100022
Sym=     7a  
Ene=    -0.5929
Spin= Alpha
Occup=    2.00000
   1         0.03941726
   2        -0.06577423
   3         0.18151182
   4        -0.14550326
   5        -0.00000000
   6         0.09241971
   7         0.06891285
   8        -0.34491651
   9        -0.19442967
  10        -0.00000000
  11         0.51762082
  12         0.28732792
  13         0.06511064
  14        -0.34225917
  15         0.44181941
  16        -0.00000000
  17        -0.23967349
Sym=     8a  
Ene=    -0.5794
Spin= Alpha
Occup=    2.00000
   1        -0.26647948
   2        -0.03582839
   3         0.09831369
   4         0.19848512
   5        -0.00000000
   6         0.28663313
   7         0.01780102
   8        -0.09492578
   9        -0.52412433
  10        -0.00000000
  11        -0.27977986
  12        -0.17456002
  13         0.00859920
  14        -0.04370567
  15         0.32227341
  16        -0.00000000
  17         0.27702190
Sym=     9a  
Ene=    -0.5364
Spin= Alpha
Occup=    2.00000
   1         0.00000000
   2        -0.00000000
   3         0.00000000
   4         0.00000000
   5         0.35522847
   6         0.00000000
   7         0.00000000
   8        -0.00000000
   9        -0.00000000
  10         0.51277176
  11         0.00000000
  12        -0.00000000
  13        -0.00000000
  14        -0.00000000
  15        -0.00000000
  16         0.66782363
  17         0.00000000
Sym=    10a  
Ene=    -0.5077
Spin= Alpha
Occup=    2.00000
   1         0.24417006
   2         0.00906675
   3         0.01218534
   4         0.19045942
   5        -0.00000000
   6        -0.14580605
   7         0.05284820
   8        -0.29028444
   9        -0.44966659
  10         0.00000000
  11         0.35073363
  12         0.20965172
  13        -0.01732113
  14         0.12485977
  15        -0.46819819
  16        -0.00000000
  17         0.41076828
Sym=    11a  
Ene=    -0.4761
Spin= Alpha
Occup=    2.00000
   1         0.00000000
   2        -0.00000000
   3        -0.00000000
   4         0.00000000
   5         0.00660476
   6        -0.00000000
   7         0.00000000
   8        -0.00000000
   9        -0.00000000
  10        -0.79815020
  11         0.00000000
  12         0.00000000
  13        -0.00000000
  14         0.00000000
  15        -0.00000000
  16         0.60770775
  17         0.00000000
Sym=    12a  
Ene=    -0.4585
Spin= Alpha
Occup=    2.00000
   1         0.26679659
   2        -0.00388444
   3         0.02691660
   4        -0.02891507
   5         0.00000000
   6        -0.09346307
   7         0.01383502
   8        -0.06374190
   9         0.42533616
  10         0.00000000
  11         0.03971784
  12         0.04195052
  13         0.00150307
  14        -0.00737287
  15         0.47348844
  16         0.00000000
  17         0.73981412
Sym=    13a  
Ene=    -0.2738
Spin= Alpha
Occup=    0.00000
   1         0.00000000
   2        -0.00000000
   3        -0.00000000
   4        -0.00000000
   5        -0.97502662
   6        -0.00000000
   7        -0.00000000
   8         0.00000000
   9        -0.00000000
  10         0.35658967
  11         0.00000000
  12        -0.00000000
  13         0.00000000
  14         0.00000000
  15         0.00000000
  16         0.48381695
  17         0.00000000
Sym=    14a  
Ene=    -0.2135
Spin= Alpha
Occup=    0.00000
   1         0.10001466
   2         0.02036320
   3        -0.11632972
   4        -0.11243119
   5         0.00000000
   6        -0.03515971
   7        -0.11564644
   8         0.76622435
   9        -0.16200566
  10        -0.00000000
  11         0.76462521
  12        -1.14606911
  13        -0.00690643
  14         0.03550751
  15         0.06476709
  16        -0.00000000
  17         0.05732890
Sym=    15a  
Ene=    -0.1731
Spin= Alpha
Occup=    0.00000
   1        -0.28425949
   2        -0.18438114
   3         1.10610529
   4         0.58861394
   5        -0.00000000
   6         0.44757596
   7         0.08146060
   8        -0.54216159
   9         0.69662747
  10        -0.00000000
  11         0.35937187
  12        -0.23688944
  13         0.04476794
  14        -0.28955394
  15        -0.38120488
  16         0.00000000
  17         0.00932281
Sym=    16a  
Ene=    -0.1411
Spin= Alpha
Occup=    0.00000
   1         1.01518820
   2         0.13917276
   3        -0.92470185
   4         0.69545074
   5        -0.00000000
   6         0.66948342
   7         0.02226441
   8        -0.17359326
   9         0.15753545
  10         0.00000000
  11         0.03166159
  12        -0.01914629
  13        -0.05850891
  14         0.42642510
  15         0.21710748
  16         0.00000000
  17        -0.42193994
Sym=    17a  
Ene=    -0.1240
Spin= Alpha
Occup=    0.00000
   1        -0.57895546
   2         0.02180301
   3        -0.20803749
   4         0.93582998
   5         0.00000000
   6        -0.96478892
   7         0.02066402
   8        -0.15554354
   9         0.06577611
  10        -0.00000000
  11         0.24004474
  12         0.00929089
  13        -0.10067466
  14         0.81865090
  15         0.61822832
  16        -0.00000000
  17        -0.35355621
