[Molden Format]
[N_ATOMS]
                     5
[ATOMS] (AU)
H1          1      1           0.00000000      0.00000000      0.00000000
C1          2      6           0.00000000      0.00000000      2.07302956
O1          3      8           2.36933580      0.00000000      2.98253236
H2          4      1           2.21883002      0.00000000      4.81316966
O2          5      8          -1.88089831      0.00000000      3.34649345
[CHARGE] (MULLIKEN)
  7.043890263769481E-002
  0.268178167513345     
 -0.297881275486132     
  0.221699053706786     
 -0.262434848372058     
[GTO] (AU)
   1
   s   3
  0.342525091E+01  0.154328971E+00
  0.623913730E+00  0.535328142E+00
  0.168855400E+00  0.444634542E+00
 
   2
   s   3
  0.716168370E+02  0.154328970E+00
  0.130450960E+02  0.535328140E+00
  0.353051220E+01  0.444634540E+00
   s   3
  0.294124940E+01 -0.999672301E-01
  0.683483100E+00  0.399512830E+00
  0.222289900E+00  0.700115471E+00
   p   3
  0.294124940E+01  0.155916272E+00
  0.683483100E+00  0.607683728E+00
  0.222289900E+00  0.391957395E+00
 
   3
   s   3
  0.130709320E+03  0.154328969E+00
  0.238088610E+02  0.535328136E+00
  0.644360830E+01  0.444634536E+00
   s   3
  0.503315130E+01 -0.999672287E-01
  0.116959610E+01  0.399512825E+00
  0.380389000E+00  0.700115461E+00
   p   3
  0.503315130E+01  0.155916268E+00
  0.116959610E+01  0.607683714E+00
  0.380389000E+00  0.391957386E+00
 
   4
   s   3
  0.342525091E+01  0.154328971E+00
  0.623913730E+00  0.535328142E+00
  0.168855400E+00  0.444634542E+00
 
   5
   s   3
  0.130709320E+03  0.154328969E+00
  0.238088610E+02  0.535328136E+00
  0.644360830E+01  0.444634536E+00
   s   3
  0.503315130E+01 -0.999672287E-01
  0.116959610E+01  0.399512825E+00
  0.380389000E+00  0.700115461E+00
   p   3
  0.503315130E+01  0.155916268E+00
  0.116959610E+01  0.607683714E+00
  0.380389000E+00  0.391957386E+00
 
[MO]
Sym=     1a  
Ene=   -20.3240
Spin= Alpha
Occup=    1.00000
   1         0.00027904
   2         0.00049971
   3        -0.00491007
   4        -0.00452258
   5         0.00000000
   6        -0.00168190
   7         0.99408821
   8         0.02676445
   9        -0.00393739
  10        -0.00000000
  11         0.00197020
  12        -0.00580977
  13         0.00077577
  14         0.00023101
  15         0.00041701
  16        -0.00000000
  17         0.00046654
Sym=     1a  
Ene=   -20.3240
Spin= Beta
Occup=    1.00000
   1         0.00027904
   2         0.00049971
   3        -0.00491007
   4        -0.00452258
   5         0.00000000
   6        -0.00168190
   7         0.99408821
   8         0.02676445
   9        -0.00393739
  10        -0.00000000
  11         0.00197020
  12        -0.00580977
  13         0.00077577
  14         0.00023101
  15         0.00041701
  16        -0.00000000
  17         0.00046654
Sym=     2a  
Ene=   -20.2740
Spin= Alpha
Occup=    1.00000
   1         0.00016382
   2         0.00052374
   3        -0.00754097
   4         0.00542551
   5         0.00000000
   6        -0.00377744
   7        -0.00084967
   8         0.00026334
   9        -0.00030178
  10        -0.00000000
  11         0.00045028
  12        -0.00010333
  13         0.99421640
  14         0.02646090
  15         0.00495882
  16        -0.00000000
  17        -0.00329535
Sym=     2a  
Ene=   -20.2740
Spin= Beta
Occup=    1.00000
   1         0.00016382
   2         0.00052374
   3        -0.00754097
   4         0.00542551
   5         0.00000000
   6        -0.00377744
   7        -0.00084967
   8         0.00026334
   9        -0.00030178
  10        -0.00000000
  11         0.00045028
  12        -0.00010333
  13         0.99421640
  14         0.02646090
  15         0.00495882
  16        -0.00000000
  17        -0.00329535
Sym=     3a  
Ene=   -11.1840
Spin= Alpha
Occup=    1.00000
   1        -0.00653771
   2         0.99272570
   3         0.03181655
   4        -0.00017652
   5         0.00000000
   6         0.00026922
   7         0.00030762
   8        -0.00441154
   9         0.00225115
  10        -0.00000000
  11         0.00122936
  12        -0.00152481
  13         0.00007436
  14        -0.00557490
  15        -0.00119648
  16         0.00000000
  17         0.00070632
Sym=     3a  
Ene=   -11.1840
Spin= Beta
Occup=    1.00000
   1        -0.00653771
   2         0.99272570
   3         0.03181655
   4        -0.00017652
   5         0.00000000
   6         0.00026922
   7         0.00030762
   8        -0.00441154
   9         0.00225115
  10        -0.00000000
  11         0.00122936
  12        -0.00152481
  13         0.00007436
  14        -0.00557490
  15        -0.00119648
  16         0.00000000
  17         0.00070632
Sym=     4a  
Ene=    -1.4004
Spin= Alpha
Occup=    1.00000
   1         0.03246169
   2        -0.13229947
   3         0.29920454
   4        -0.00228480
   5         0.00000000
   6         0.09175636
   7        -0.16343329
   8         0.57478338
   9        -0.11164518
  10         0.00000000
  11         0.03258450
  12         0.08794385
  13        -0.13333214
  14         0.45376837
  15         0.10981439
  16         0.00000000
  17        -0.05967412
Sym=     4a  
Ene=    -1.4004
Spin= Beta
Occup=    1.00000
   1         0.03246169
   2        -0.13229947
   3         0.29920454
   4        -0.00228480
   5         0.00000000
   6         0.09175636
   7        -0.16343329
   8         0.57478338
   9        -0.11164518
  10         0.00000000
  11         0.03258450
  12         0.08794385
  13        -0.13333214
  14         0.45376837
  15         0.10981439
  16         0.00000000
  17        -0.05967412
Sym=     5a  
Ene=    -1.2954
Spin= Alpha
Occup=    1.00000
   1         0.01040068
   2        -0.04303160
   3         0.09523962
   4        -0.20931871
   5        -0.00000000
   6         0.05000638
   7         0.15941523
   8        -0.57646622
   9         0.05767071
  10        -0.00000000
  11        -0.04284384
  12        -0.10225391
  13        -0.17438567
  14         0.61078096
  15         0.09893538
  16         0.00000000
  17        -0.07452354
Sym=     5a  
Ene=    -1.2954
Spin= Beta
Occup=    1.00000
   1         0.01040068
   2        -0.04303160
   3         0.09523962
   4        -0.20931871
   5        -0.00000000
   6         0.05000638
   7         0.15941523
   8        -0.57646622
   9         0.05767071
  10        -0.00000000
  11        -0.04284384
  12        -0.10225391
  13        -0.17438567
  14         0.61078096
  15         0.09893538
  16         0.00000000
  17        -0.07452354
Sym=     6a  
Ene=    -0.8100
Spin= Alpha
Occup=    1.00000
   1        -0.28185605
   2         0.15721149
   3        -0.50899152
   4        -0.13160381
   5         0.00000000
   6         0.22493477
   7        -0.03792669
   8         0.16373939
   9         0.17794111
  10         0.00000000
  11         0.31303418
  12         0.25805311
  13        -0.06925165
  14         0.29325808
  15        -0.05320032
  16        -0.00000000
  17         0.11509585
Sym=     6a  
Ene=    -0.8100
Spin= Beta
Occup=    1.00000
   1        -0.28185605
   2         0.15721149
   3        -0.50899152
   4        -0.13160381
   5         0.00000000
   6         0.22493477
   7        -0.03792669
   8         0.16373939
   9         0.17794111
  10         0.00000000
  11         0.31303418
  12         0.25805311
  13        -0.06925165
  14         0.29325808
  15        -0.05320032
  16        -0.00000000
  17         0.11509585
Sym=     7a  
Ene=    -0.6395
Spin= Alpha
Occup=    1.00000
   1        -0.26815461
   2        -0.01045597
   3         0.05409937
   4         0.28525050
   5        -0.00000000
   6         0.43134146
   7         0.03648472
   8        -0.18057721
   9        -0.40606517
  10        -0.00000000
  11        -0.19199870
  12        -0.20674307
  13         0.00456137
  14        -0.02174176
  15         0.22431223
  16        -0.00000000
  17         0.28898044
Sym=     7a  
Ene=    -0.6395
Spin= Beta
Occup=    1.00000
   1        -0.26815461
   2        -0.01045597
   3         0.05409937
   4         0.28525050
   5        -0.00000000
   6         0.43134146
   7         0.03648472
   8        -0.18057721
   9        -0.40606517
  10        -0.00000000
  11        -0.19199870
  12        -0.20674307
  13         0.00456137
  14        -0.02174176
  15         0.22431223
  16        -0.00000000
  17         0.28898044
Sym=     8a  
Ene=    -0.5996
Spin= Alpha
Occup=    1.00000
   1         0.02858117
   2        -0.07850736
   3         0.25742029
   4        -0.23242580
   5        -0.00000000
   6         0.15752561
   7         0.06345420
   8        -0.30853834
   9        -0.18477925
  10        -0.00000000
  11         0.40726050
  12         0.25965180
  13         0.10844623
  14        -0.54879363
  15         0.42549083
  16        -0.00000000
  17        -0.23295439
Sym=     8a  
Ene=    -0.5996
Spin= Beta
Occup=    1.00000
   1         0.02858117
   2        -0.07850736
   3         0.25742029
   4        -0.23242580
   5        -0.00000000
   6         0.15752561
   7         0.06345420
   8        -0.30853834
   9        -0.18477925
  10        -0.00000000
  11         0.40726050
  12         0.25965180
  13         0.10844623
  14        -0.54879363
  15         0.42549083
  16        -0.00000000
  17        -0.23295439
Sym=     9a  
Ene=    -0.5494
Spin= Alpha
Occup=    1.00000
   1         0.00000000
   2         0.00000000
   3         0.00000000
   4         0.00000000
   5         0.51943433
   6         0.00000000
   7         0.00000000
   8        -0.00000000
   9        -0.00000000
  10         0.62500869
  11         0.00000000
  12         0.00000000
  13         0.00000000
  14        -0.00000000
  15         0.00000000
  16         0.38320351
  17         0.00000000
Sym=     9a  
Ene=    -0.5494
Spin= Beta
Occup=    1.00000
   1         0.00000000
   2         0.00000000
   3         0.00000000
   4         0.00000000
   5         0.51943433
   6         0.00000000
   7         0.00000000
   8        -0.00000000
   9        -0.00000000
  10         0.62500869
  11         0.00000000
  12         0.00000000
  13         0.00000000
  14        -0.00000000
  15         0.00000000
  16         0.38320351
  17         0.00000000
Sym=    10a  
Ene=    -0.4745
Spin= Alpha
Occup=    1.00000
   1         0.24450020
   2        -0.00252517
   3         0.01360491
   4         0.24962840
   5        -0.00000000
   6        -0.19318723
   7         0.07702257
   8        -0.40629546
   9        -0.43276754
  10        -0.00000000
  11         0.39614821
  12         0.28655486
  13        -0.04492959
  14         0.25366913
  15        -0.34152861
  16        -0.00000000
  17         0.33723799
Sym=    10a  
Ene=    -0.4745
Spin= Beta
Occup=    1.00000
   1         0.24450020
   2        -0.00252517
   3         0.01360491
   4         0.24962840
   5        -0.00000000
   6        -0.19318723
   7         0.07702257
   8        -0.40629546
   9        -0.43276754
  10        -0.00000000
  11         0.39614821
  12         0.28655486
  13        -0.04492959
  14         0.25366913
  15        -0.34152861
  16        -0.00000000
  17         0.33723799
Sym=    11a  
Ene=    -0.3649
Spin= Alpha
Occup=    1.00000
   1         0.00000000
   2        -0.00000000
   3        -0.00000000
   4         0.00000000
   5         0.29064993
   6         0.00000000
   7        -0.00000000
   8         0.00000000
   9         0.00000000
  10        -0.72391735
  11         0.00000000
  12        -0.00000000
  13         0.00000000
  14        -0.00000000
  15         0.00000000
  16         0.62209622
  17         0.00000000
Sym=    11a  
Ene=    -0.3649
Spin= Beta
Occup=    1.00000
   1         0.00000000
   2        -0.00000000
   3        -0.00000000
   4         0.00000000
   5         0.29064993
   6         0.00000000
   7        -0.00000000
   8         0.00000000
   9         0.00000000
  10        -0.72391735
  11         0.00000000
  12        -0.00000000
  13         0.00000000
  14        -0.00000000
  15         0.00000000
  16         0.62209622
  17         0.00000000
Sym=    12a  
Ene=    -0.3609
Spin= Alpha
Occup=    1.00000
   1         0.30258829
   2        -0.00730342
   3         0.01064544
   4        -0.02809416
   5         0.00000000
   6        -0.08700038
   7         0.00318028
   8        -0.02126013
   9         0.39980409
  10         0.00000000
  11        -0.00266416
  12         0.05888915
  13         0.00332990
  14        -0.01364987
  15         0.50868303
  16        -0.00000000
  17         0.71817759
Sym=    12a  
Ene=    -0.3609
Spin= Beta
Occup=    1.00000
   1         0.30258829
   2        -0.00730342
   3         0.01064544
   4        -0.02809416
   5         0.00000000
   6        -0.08700038
   7         0.00318028
   8        -0.02126013
   9         0.39980409
  10         0.00000000
  11        -0.00266416
  12         0.05888915
  13         0.00332990
  14        -0.01364987
  15         0.50868303
  16        -0.00000000
  17         0.71817759
Sym=    13a  
Ene=     0.3074
Spin= Alpha
Occup=    0.00000
   1         0.00000000
   2        -0.00000000
   3         0.00000000
   4         0.00000000
   5        -0.85006964
   6         0.00000000
   7         0.00000000
   8        -0.00000000
   9         0.00000000
  10         0.33532468
  11         0.00000000
  12         0.00000000
  13        -0.00000000
  14         0.00000000
  15        -0.00000000
  16         0.71800231
  17        -0.00000000
Sym=    13a  
Ene=     0.3074
Spin= Beta
Occup=    0.00000
   1         0.00000000
   2        -0.00000000
   3         0.00000000
   4         0.00000000
   5        -0.85006964
   6         0.00000000
   7         0.00000000
   8        -0.00000000
   9         0.00000000
  10         0.33532468
  11         0.00000000
  12         0.00000000
  13        -0.00000000
  14         0.00000000
  15        -0.00000000
  16         0.71800231
  17        -0.00000000
Sym=    14a  
Ene=     0.5678
Spin= Alpha
Occup=    0.00000
   1        -0.56406366
   2        -0.10425174
   3         0.60508627
   4         0.30144654
   5         0.00000000
   6        -0.17859451
   7         0.11909821
   8        -0.78117503
   9         0.35380304
  10        -0.00000000
  11        -0.54924520
  12         0.96533080
  13         0.01039170
  14        -0.04008917
  15        -0.08160106
  16        -0.00000000
  17        -0.02889507
Sym=    14a  
Ene=     0.5678
Spin= Beta
Occup=    0.00000
   1        -0.56406366
   2        -0.10425174
   3         0.60508627
   4         0.30144654
   5         0.00000000
   6        -0.17859451
   7         0.11909821
   8        -0.78117503
   9         0.35380304
  10        -0.00000000
  11        -0.54924520
  12         0.96533080
  13         0.01039170
  14        -0.04008917
  15        -0.08160106
  16        -0.00000000
  17        -0.02889507
Sym=    15a  
Ene=     0.6755
Spin= Alpha
Occup=    0.00000
   1        -0.93089908
   2        -0.18081666
   3         1.13322207
   4        -0.02699499
   5        -0.00000000
   6        -0.39897184
   7        -0.01055445
   8         0.08950458
   9         0.25874033
  10         0.00000000
  11         0.57785956
  12        -0.57209903
  13         0.03976577
  14        -0.25862545
  15        -0.22798928
  16         0.00000000
  17         0.29685252
Sym=    15a  
Ene=     0.6755
Spin= Beta
Occup=    0.00000
   1        -0.93089908
   2        -0.18081666
   3         1.13322207
   4        -0.02699499
   5        -0.00000000
   6        -0.39897184
   7        -0.01055445
   8         0.08950458
   9         0.25874033
  10         0.00000000
  11         0.57785956
  12        -0.57209903
  13         0.03976577
  14        -0.25862545
  15        -0.22798928
  16         0.00000000
  17         0.29685252
Sym=    16a  
Ene=     0.7308
Spin= Alpha
Occup=    0.00000
   1         0.56099595
   2        -0.06102825
   3         0.32086501
   4         0.63598409
   5         0.00000000
   6         0.89834491
   7         0.06467699
   8        -0.42857462
   9         0.67756921
  10        -0.00000000
  11         0.31668745
  12        -0.21848259
  13         0.01851012
  14        -0.12468538
  15        -0.31882583
  16        -0.00000000
  17        -0.20245145
Sym=    16a  
Ene=     0.7308
Spin= Beta
Occup=    0.00000
   1         0.56099595
   2        -0.06102825
   3         0.32086501
   4         0.63598409
   5         0.00000000
   6         0.89834491
   7         0.06467699
   8        -0.42857462
   9         0.67756921
  10        -0.00000000
  11         0.31668745
  12        -0.21848259
  13         0.01851012
  14        -0.12468538
  15        -0.31882583
  16        -0.00000000
  17        -0.20245145
Sym=    17a  
Ene=     0.9745
Spin= Alpha
Occup=    0.00000
   1        -0.22302410
   2         0.06838282
   3        -0.50925102
   4         1.04325284
   5         0.00000000
   6        -0.66537337
   7         0.01465596
   8        -0.10794921
   9         0.11119115
  10        -0.00000000
  11         0.34520100
  12        -0.13841249
  13        -0.11243623
  14         0.86257249
  15         0.73366393
  16        -0.00000000
  17        -0.51447210
Sym=    17a  
Ene=     0.9745
Spin= Beta
Occup=    0.00000
   1        -0.22302410
   2         0.06838282
   3        -0.50925102
   4         1.04325284
   5         0.00000000
   6        -0.66537337
   7         0.01465596
   8        -0.10794921
   9         0.11119115
  10        -0.00000000
  11         0.34520100
  12        -0.13841249
  13        -0.11243623
  14         0.86257249
  15         0.73366393
  16        -0.00000000
  17        -0.51447210
