 --invoking executable--
/opt/cfour/2.1/bin/xjoda


   *************************************************************************
         <<<     CCCCCC     CCCCCC   |||     CCCCCC     CCCCCC   >>>
       <<<      CCC        CCC       |||    CCC        CCC         >>>
      <<<      CCC        CCC        |||   CCC        CCC            >>>
    <<<        CCC        CCC        |||   CCC        CCC              >>>
      <<<      CCC        CCC        |||   CCC        CCC            >>>
       <<<      CCC        CCC       |||    CCC        CCC         >>>
         <<<     CCCCCC     CCCCCC   |||     CCCCCC     CCCCCC   >>>
   *************************************************************************

     ****************************************************************
     * CFOUR Coupled-Cluster techniques for Computational Chemistry *
     ****************************************************************


   Department of Chemistry                Institut fuer Physikalische Chemie
   University of Florida                  Universitaet Mainz
   Gainesville, FL 32611, USA             D-55099 Mainz, Germany

   Department of Chemistry                Fakultaet fuer Chemie und Biowiss.
   Johns Hopkins University               Karlsruher Institut fuer Technologie
   Baltimore, MD 21218, USA               D-76131 Karlsruhe, Germany

   Department of Chemistry                Department of Physical Chemistry
   Southern Methodist University          Eotvos Lorand University
   Dallas, TX 75275, USA                  H-1053 Budapest, Hungary


                       Version 2.1

                     node020                                           
                     Wed 05 Mar 2025 11:16:38 AM PST                   
                     integer*8 version is running

********************************************************************************
*                          Input from ZMAT file                                *
********************************************************************************
Optimization on CO                                                              
C                                                                               
O 1 rCO*                                                                        
                                                                                
rCO = 1.144618043127180                                                         
                                                                                
*ACES2(CALC = CCSD(T)                                                           
      BASIS = SPECIAL                                                           
FROZEN_CORE = ON                                                                
   SCF_CONV = 10                                                                
    CC_CONV = 8                                                                 
 LINEQ_CONV = 8                                                                 
   SCF_MAXCYC = 500                                                             
    CC_MAXCYC = 500                                                             
 LINEQ_MAXCYC = 500                                                             
       MEMORY = 4                                                               
     MEM_UNIT = GB)                                                             
                                                                                
C:cc-pVDZ                                                                       
O:cc-pVDZ                                                                       
                                                                                
********************************************************************************
    -------------------------------------------------------------------
                    CFOUR Control Parameters 
    -------------------------------------------------------------------
        External           Internal           Value            Units
          Name               Name
    -------------------------------------------------------------------
       ABCDTYPE             IABCDT         STANDARD    [  0]    ***   
       ANHARMONIC           IANHAR         OFF         [  0]    ***   
       ANH_ALGORIT          IANALG         STANDARD    [  0]    ***   
       ANH_DERIVAT          IANDER         SECOND      [  1]    ***   
       ANH_MODE             ANHMOD         VIBRATION   [  0]    ***   
       ANH_STEPSIZ          ICUBST             50000          x 10-6  
       ANH_SYMMETR          IANHSM         ABELIAN     [  0]    ***   
       AO_LADDERS           IAOLAD         SINGLEPASS  [  1]    ***   
       AV_SCF               IAVSCF         OFF         [  0]    ***   
       BASIS                IBASIS         SPECIAL     [  0]    ***   
       BOTHVECTORS          BOTHVC         OFF         [  0]    ***   
       BOX_POTENT           IPIAB          OFF         [  0]    ***   
       BREIT                IBREIT         OFF         [  0]    ***   
       BRUCK_CONV           IBRTOL          10D-  4             ***   
       BRUECKNER            IBRKNR         OFF         [  0]    ***   
       BUFFERSIZE           IBUFFS              4096            ***   
       CACHE_RECS           ICHREC             10               ***   
       CALCLEVEL            ICLLVL         CCSD(T)     [ 22]    ***   
       CCORBOPT             ICCORB         OFF         [  0]  x 0.01  
       CC_CONV              ICCCNV          10D-  8             ***   
       CC_EXPORDER          ICCEOR              5               ***   
       CC_EXTRAPOL          ICCEXT         DIIS        [  1]    ***   
       CC_GUESS             ICCGES         MP2         [  0]    ***   
       CC_MAXCYC            ICCCYC            500              cycles 
       CC_PROGRAM           ICCPRO         VCC         [  0]    ***   
       CHARGE               ICHRGE              0               ***   
       CHOLESKY             ICHOLE         OFF         [  0]    ***   
       CIS_CONV             ICISTL              5               ***   
       COMM_SIZE            IPSIZE            ***               ***   
       CONSTANT             ICONST         OLD         [  1]    ***   
       CONTINUUM            ICONTU         NONE        [  0]    ***   
       CONTRACTION          ICNTYP         GENERAL     [  1]    ***   
       COORDINATES          ICOORD         INTERNAL    [  0]    ***   
       CPHF_CONVER          ICPHFT          10D- 16             ***   
       CPHF_MAXCYC          ICPHFC             64              cycles 
       CUBIC                ICUBIC         OFF         [  0]    ***   
       CURVILINEAR          ICURVY         OFF         [  0]    ***   
       DBOC                 IDBOC          OFF         [  0]    ***   
       DCT                  IDCT           OFF         [  0]    ***   
       DERIV_LEV            IDRLVL         FIRST       [  1]    ***   
       DEVMEM_SIZE          IDVMEM         *********           MByte  
       DIAG_MRCC            IEOMST          10D-  0             ***   
       DIFF_TYPE            IDIFTY         RELAXED     [  0]    ***   
       DIRECT               IDIRCT         OFF         [  0]    ***   
       DROPMO               IDRPMO      NONE         
       ECP                  IECP           OFF         [  0]    ***   
       EIGENVECTOR          IVEC                1               ***   
       EL_ANHARM            IELANH         OFF         [  0]    ***   
       EOMFOLLOW            IEOMSR         ENERGY      [  0]    ***   
       EOMIP                IEOMIP         OFF         [  0]    ***   
       EOMLEVEL             HBARFM         SAME        [  0]    ***   
       EOM_MRCC             IMRCCE         NEW         [  1]    ***   
       EOM_NONIT            EOMNON         OFF         [  0]    ***   
       EOM_NSING            IEOMSI          10D-  0             ***   
       EOM_NSTATES          IMRCCD         DAVIDSON    [  0]    ***   
       EOM_NTRIP            IEOMTR          10D-  0             ***   
       EOM_ORDER            IEXORD         ENERGY      [  0]    ***   
       EOM_PROPSTA          IEOMST              0               ***   
       ESTATE_CONV          IEXTOL          10D-  5             ***   
       ESTATE_DIAG          IEXDIG         ITERATIVE   [  0]    ***   
       ESTATE_LOCK          IESLOC         ON          [  1]    ***   
       ESTATE_MAXC          IEXMXC             40               ***   
       ESTATE_PROP          IEXPRP         OFF         [  0]    ***   
       EVAL_HESS            IRECAL              0            # of cyc.
       EXCITATION           IEXCIT              0               ***   
       EXCITE               IEXCIT         NONE        [  0]    ***   
       EXTERN_POT           IEXPOT         OFF         [  0]    ***   
       FCGRADNEW            IFCGNW         ON          [  1]    ***   
       FC_FIELD             IFINFC              0             x 10-6  
       FD_CALTYPE           IFDCAL         GRADONLY    [  0]    ***   
       FD_PROJECT           IFDPRJ         OFF         [  1]    ***   
       FD_STEPSIZE          IDISFD              0            10-4 bohr
       FD_USEGROUP          IFDGRP         FULL        [  0]    ***   
       FILE_RECSIZ          IFLREC              4096           words  
       FINITE_PERT          IFIPER              0             x 10-6  
       FIXGEOM              IFIXGM         OFF         [  0]    ***   
       FOCK                 IFOCK          AO          [  1]    ***   
       FREQ_ALGORI          IVIALG         STANDARD    [  0]    ***   
       FROZEN_CORE          IFROCO         ON          [  1]    ***   
       GAMMA_ABCD           IGABCD         STORE       [  0]    ***   
       GAMMA_ABCI           IGABCI         STORE       [  0]    ***   
       GENBAS_1             IGNBS1              0               ***   
       GENBAS_2             IGNBS2              0               ***   
       GENBAS_3             IGNBS3              0               ***   
       GENBAS_4             IGNBS4              0               ***   
       GEO_CONV             ICONTL              5              H/bohr 
       GEO_MAXCYC           IOPTCY             50               ***   
       GEO_MAXSTEP          IMXSTP            300            millibohr
       GEO_METHOD           INR            NR          [  0]    ***   
       GIAO                 IGIAO          OFF         [  1]    ***   
       GIMIC                IGIMIC         OFF         [  0]    ***   
       GRID                 IGRID          OFF         [  0]    ***   
       GRID_ALGO            IGALGO         SERIAL      [  0]    ***   
       GUESS                IGUESS         MOREAD      [  0]    ***   
       HBAR                 IHBAR          OFF         [  0]    ***   
       HESS_TYPE            IHESTP         SCF         [  0]    ***   
       HF2_FILE             IHF2Fl         USE         [  1]    ***   
       HFSTABILITY          ISTABL         OFF         [  0]    ***   
       INCORE               INCORE         OFF         [  0]    ***   
       INPUT_MRCC           IMRCC          ON          [  1]    ***   
       INTEGRALS            INTTYP         VMOL        [  1]    ***   
       JODA_PRINT           IJPRNT              0               ***   
       KEYWORD_OUT          IDMPKW         NO          [  0]    ***   
       LINDEP_TOL           ILINDP              8               ***   
       LINEQ_CONV           IZTACN          10D-  8           cycles  
       LINEQ_EXPOR          ILMAXD              5               ***   
       LINEQ_MAXCY          ILMAXC            500               ***   
       LINEQ_TYPE           ILTYPE         DIIS        [  1]    ***   
       LOCK_ORBOCC          ILOCOC         OFF         [  0]    ***   
       MEMORY_SIZE          IMEMSZ         500000000           words  
       MEM_UNIT             IMEMU          GB          [  3]    ***   
       MRCC                 IMRCCC         OFF         [  0]    ***   
       MULTIPLICTY          IMULTP              1               ***   
       NACOUPLING           IVCOUP         OFF         [  0]    ***   
       NEGEVAL              IDIE           ABORT       [  0]    ***   
       NEWNORM              INEWNO         OFF         [  0]    ***   
       NON-HF               INONHF         OFF         [  0]    ***   
       NTOP_TAMP            ITOPT2             15               ***   
       NUC_MODEL            INUCMO         POINT       [  0]    ***   
       OCCUPATION           IOCCU   ESTIMATED BY SCF 
       OPEN-SHELL           IOPEN          SPIN-ORBITAL[  0]    ***   
       OPTVIB               IOPTVB         OFF         [  0]    ***   
       ORBITALS             IORBTP         STANDARD    [  0]    ***   
       PARALLEL             IPARAL         ON          [  1]    ***   
       PARA_INT             IPINTS         ON          [  1]    ***   
       PARA_PRINT           IPPRIN              0               ***   
       PERT_ORB             IPTORB         CANONICAL   [  1]    ***   
       POINTS               IGRDFD              0               ***   
       PRINT                IPRNT               0               ***   
       PROPS                IPROPS         OFF         [  0]    ***   
       PROP_INTEGR          IINTYP         INTERNAL    [  0]    ***   
       PSI                  IPSI           OFF         [  0]    ***   
       QC_ALG               IQCALG         FLM         [  0]    ***   
       QC_LINALG            IQCLIN         TRIDIAG     [  2]    ***   
       QC_MAXCYC            IQCMAX          10D-100           cycles  
       QC_MAXSCFCY          IQCMSC          10D- 15           cycles  
       QC_RTRUST            IQCRTR          10D-  0           x 10-3  
       QC_SKIPSCF           IQCSKI         OFF         [  0]    ***   
       QC_START             IQCSTA          10D-  1             ***   
       QRHFGUESS            IQGUES         OFF         [  0]    ***   
       QUARTIC              IQUART         OFF         [  0]    ***   
       RAMAN_INT            IRAMIN         OFF         [  0]    ***   
       RAMAN_ORB            IRAMRE         UNRELAXED   [  0]    ***   
       RDO                  IRDOFM         ON          [  1]    ***   
       REDUCE_REPR          REDREP         Ir          [  0]    ***   
       REFERENCE            IREFNC         RHF         [  0]    ***   
       RELATIVIST           IRELAT         OFF         [  0]    ***   
       RELAX_DENS           IRDENS         ON          [  1]    ***   
       RESET_FLAGS          IRESET         OFF         [  0]    ***   
       RESTART_CC           ICCRES         OFF         [  0]    ***   
       ROT_EVEC             ROTVEC              0               ***   
       SAVE_INTS            ISVINT         OFF         [  0]    ***   
       SCALE_ON             ISTCRT              0               ***   
       SCF_CONV             ISCFCV          10D- 10             ***   
       SCF_DAMPING          IDAMP               0             x 10-3  
       SCF_EXPORDE          IRPPOR              6               ***   
       SCF_EXPSTAR          IRPPLS              8               ***   
       SCF_EXTRAPO          IRPP           ON          [  1]    ***   
       SCF_MAXCYC           ISCFCY            500              cycles 
       SCF_NOSTOP           ISCFST         OFF         [  0]    ***   
       SCF_PRINT            ISCFPR              0               ***   
       SCF_PROG             ISCFPR         SCF         [  0]    ***   
       SD_FIELD             IFINSD              0             x 10-6  
       SOPERT               IPERSO         OFF         [  0]    ***   
       SPHERICAL            IDFGHI         ON          [  1]    ***   
       SPINORBIT            ISOCAL         OFF         [  0]    ***   
       SPINROTATIO          ISRCON         OFF         [  0]    ***   
       SPIN_FLIP            ISPFLP         OFF         [  0]    ***   
       SPIN_ORBIT           ISPORB         OFF         [  0]    ***   
       SPIN_SCAL            ISCSMP         OFF         [  0]    ***   
       STEEPSCALE           ISTPSC              1000          x 10-3  
       SUBGROUP             ISUBGP         DEFAULT     [  0]    ***   
       SUBGRPAXIS           ISBXYZ         X           [  0]    ***   
       SYMMETRY             ISYM           ON          [  0]    ***   
       SYM_CHECK            ISYMCK         OVERRIDE    [  1]    ***   
       T3_EXTRAPOL          IT3EXT         OFF         [  0]    ***   
       T4_EXTRAPOL          IT4EXP         OFF         [  0]    ***   
       TAMP_SUM             IEVERY              5               ***   
       TESTSUITE            ITESTS         OFF         [  0]    ***   
       THERMOCH             ITHERM         OFF         [  0]    ***   
       TOL_CHOLESK          ITOLCH          10D-  4             ***   
       TRANGRAD             IRESRM         OFF         [  0]    ***   
       TRANS_INV            ITRAIN         USE         [  0]    ***   
       TREAT_PERT           ITREAT         SIMULTANEOUS[  0]    ***   
       TRIP_ALGORI          ITRALG         NORMAL      [  0]    ***   
       UIJ_THRESHO          IUIJTH              1               ***   
       UNITS                IUNITS         ANGSTROM    [  0]    ***   
       UNOS                 IUNOS          OFF         [  0]    ***   
       UPDATE_HESS          IHUPDT         ON          [  1]    ***   
       VIBPHASE             ISETPH         STANDARD    [  0]    ***   
       VIBRATION            IVIB           NO          [  0]    ***   
       VIB_ALGORIT          IGEALG         STANDARD    [  0]    ***   
       VNATORB              IVNORB         OFF         [  0]    ***   
       VTRAN                IVTRAN         FULL/PARTIAL[  0]    ***   
       XFIELD               IXEFLD              0             x 10-6  
       XFORM_TOL            IXFTOL          10D- 11             ***   
       YFIELD               IYEFLD              0             x 10-6  
       ZFIELD               IZEFLD              0             x 10-6  
       ZSCALE_EXP           IZEXPS         OFF         [  0]    ***   
    -------------------------------------------------------------------
   2 entries found in Z-matrix 
   Job Title : Optimization on CO                                                              
   There are  1 unique internal coordinates.
   Of these,  1 will be optimized.
   User supplied Z-matrix: 
--------------------------------------------------------------------------------
       SYMBOL    BOND      LENGTH    ANGLE     ANGLE     DIHED     ANGLE
                  TO      (ANGST)    WRT      (DEG)      WRT      (DEG)
--------------------------------------------------------------------------------
        C    
        O          1         rCO  
                  *Initial values for internal coordinates* 
                      Name             Value
                        rCO             1.1446180431
--------------------------------------------------------------------------------
   Rotational constants (in cm-1): 
          1.8766848796             1.8766848796
   Rotational constants (in MHz): 
      56261.6051763259         56261.6051763259
********************************************************************************
   The full molecular point group is CXv .
   The largest Abelian subgroup of the full molecular point group is C2v .
   The computational point group is C2v .
********************************************************************************
--------------------------------------------------------------------------------
   Analysis of internal coordinates specified by Z-matrix 
--------------------------------------------------------------------------------
   *The nuclear repulsion energy is   22.191246200002208 a.u.
   *There is   1 degree of freedom within the tot. symm. molecular subspace.
   *Z-matrix requests optimization of   1 coordinates.
   *The optimization is unconstrained and your Z-matrix is great.
--------------------------------------------------------------------------------


 ----------------------------------------------------------------
         Coordinates used in calculation (QCOMP) 
 ----------------------------------------------------------------
 Z-matrix   Atomic            Coordinates (in bohr)
  Symbol    Number           X              Y              Z
 ----------------------------------------------------------------
     C         6        -0.00000000     0.00000000     1.23584022
     O         8         0.00000000     0.00000000    -0.92717485
 ----------------------------------------------------------------

   Interatomic distance matrix (Angstroms) 

                 C             O    
                [ 1]        [ 2]
  C    [ 1]     0.00000
  O    [ 2]     1.14462     0.00000
 rotcon2
   Rotational constants (in cm-1): 
          1.8766848796             0.0000000000
   Rotational constants (in MHz): 
      56261.6051763259             0.0000000000
  ECPDATA file not present.   Using default ECPDATA. 
  There are   2 frozen-core orbitals.
  There are   28 basis functions.
 @CHECKOUT-I, Total execution time (CPU/WALL):        0.48/       0.25 seconds.
--executable xjoda finished with status     0 in        0.27 seconds (walltime).
 --invoking executable--
/opt/cfour/2.1/bin/xvmol

Running with 4 threads/proc

 SERIAL VERSION OF MOLECULE STARTED
********************************************************************************
                    INPUT FROM MOL FILE
********************************************************************************
INTGRL        1    0    1    0    0    0    0    0    0                         
         *** CFOUR Program System (Release V0.1) ***                            
Optimization on CO                                                              
    2    2 X  Y       0.10E-08              0    0                              
   9999.00      3.00                                                            
          6.00000000    1    3    1    1    1                                   
C #1  -0.000000000000000   0.000000000000000   1.235840218818948                
    9    3                                                                      
   6665.0000000000000        6.9200000000000002E-004  -1.4600000000000000E-004  
   1000.0000000000000        5.3290000000000004E-003  -1.1540000000000001E-003  
   228.00000000000000        2.7077000000000000E-002  -5.7250000000000001E-003  
   64.709999999999994       0.10171800000000000       -2.3311999999999999E-002  
   21.059999999999999       0.27473999999999998       -6.3954999999999998E-002  
   7.4950000000000001       0.44856400000000002      -0.14998100000000000       
   2.7970000000000002       0.28507399999999999      -0.12726199999999999       
  0.52149999999999996        1.5204000000000001E-002  0.54452900000000004       
  0.15959999999999999       -3.1909999999999998E-003  0.58049600000000001       
    4    2                                                                      
   9.4390000000000001        3.8108999999999997E-002   0.0000000000000000       
   2.0019999999999998       0.20948000000000000        0.0000000000000000       
  0.54559999999999997       0.50855700000000004        0.0000000000000000       
  0.15170000000000000       0.46884199999999998        1.0000000000000000       
    1    1                                                                      
  0.55000000000000004        1.0000000000000000                                 
          8.00000000    1    3    1    1    1                                   
O #2   0.000000000000000   0.000000000000000  -0.927174853313198                
    9    3                                                                      
   11720.000000000000        7.1000000000000002E-004  -1.6000000000000001E-004  
   1759.0000000000000        5.4700000000000000E-003  -1.2630000000000000E-003  
   400.80000000000001        2.7837000000000001E-002  -6.2670000000000000E-003  
   113.70000000000000       0.10480000000000000       -2.5715999999999999E-002  
   37.030000000000001       0.28306199999999998       -7.0924000000000001E-002  
   13.270000000000000       0.44871899999999998      -0.16541100000000000       
   5.0250000000000004       0.27095200000000003      -0.11695500000000000       
   1.0129999999999999        1.5458000000000000E-002  0.55736799999999997       
  0.30230000000000001       -2.5850000000000001E-003  0.57275900000000002       
    4    2                                                                      
   17.699999999999999        4.3018000000000001E-002   0.0000000000000000       
   3.8540000000000001       0.22891300000000001        0.0000000000000000       
   1.0460000000000000       0.50872799999999996        0.0000000000000000       
  0.27529999999999999       0.46053100000000002        1.0000000000000000       
    1    1                                                                      
   1.1850000000000001        1.0000000000000000                                 
FINISH                                                                          

********************************************************************************
 ONE- AND TWO-ELECTRON INTEGRALS OVER SYMMETRY-ADAPTED AOS ARE CALCULATED.

  SPHERICAL HARMONICS ARE USED.
  
  INTEGRALS LESS THAN  0.10E-13 ARE NEGLECTED.

  NUCLEAR REPULSION ENERGY :   22.1912462000 A.U.
  @MOLECU-I, ONE ELECTRON INTEGRALS (CPU/WALL):        0.01/       0.00 SECONDS.
  @TWOEL-I,       3781 INTEGRALS OF SYMMETRY TYPE  I I I I
  @TWOEL-I,       7776 INTEGRALS OF SYMMETRY TYPE  I J I J
  @TWOEL-I,       4860 INTEGRALS OF SYMMETRY TYPE  I I J J
  @TWOEL-I,       2708 INTEGRALS OF SYMMETRY TYPE  I J K L
  @TWOEL-I, TOTAL NUMBER OF 2-E INTEGRALS      19125.
  @MOLECU-I, TWO ELECTRON INTEGRALS (CPU/WALL):        0.13/       0.03 SECONDS.
 @CHECKOUT-I, Total execution time (CPU/WALL):        0.16/       0.04 seconds.
--executable xvmol finished with status     0 in        0.05 seconds (walltime).
 --invoking executable--
/opt/cfour/2.1/bin/xvmol2ja
 @GETMEM-I,  Allocated    3814 MB of main memory.
 @CHECKOUT-I, Total execution time (CPU/WALL):        0.01/       0.00 seconds.
--executable xvmol2ja finished with status     0 in        0.01 seconds (walltime).
 --invoking executable--
/opt/cfour/2.1/bin/xvscf
  There are   28 functions in the AO basis.

  There are 4 irreducible representations.

       Irrep        # of functions
         1                 14
         2                  6
         3                  6
         4                  2


  Parameters for SCF calculation: 
        SCF reference function:  RHF  
  Maximum number of iterations:  500
     Full symmetry point group: CXv 
     Computational point group: C2v 
        Initial density matrix: MOREAD                 
     SCF convergence tolerance: 10**(-10)
  DIIS convergence acceleration:  ON
          Latest start for DIIS:   8
                     DIIS order:   6

  Memory information:      71522 words required.
  Fock matrices are constructed from AO integral file.
 @GETMEM-I,  Allocated       0 MB of main memory.
  Initialization and symmetry analysis required      0.002 seconds.

  @INITGES-I, Occupancies from core Hamiltonian:

          Alpha population by irrep:   5    1    1    0
           Beta population by irrep:   5    1    1    0


 total no. of electrons in initial guess :   0.0000000000000000     
  --------------------------------------------------------------------
  Iteration         Total Energy            Largest Density Difference
  --------------------------------------------------------------------
       0            22.191246200002212              0.0000000000D+00
   current occupation vector 
     5  1  1  0
     5  1  1  0
       1          -102.308066707742370              0.1125399031D+02
   current occupation vector 
     5  1  1  0
     5  1  1  0
       2           -99.599129833376779              0.1095116221D+02
   current occupation vector 
     5  1  1  0
     5  1  1  0
       3          -103.563008754147901              0.9815224547D+01
   current occupation vector 
     5  1  1  0
     5  1  1  0
       4           -99.281856132284787              0.1031378576D+02
   current occupation vector 
     5  1  1  0
     5  1  1  0
       5          -103.277285520684060              0.1040828228D+02
   current occupation vector 
     5  1  1  0
     5  1  1  0
       6           -99.253809724380844              0.1060828666D+02
   current occupation vector 
     5  1  1  0
     5  1  1  0
       7          -103.269712873956763              0.1061044668D+02
   current occupation vector 
     5  1  1  0
     5  1  1  0
       8           -99.254033272910334              0.1061671250D+02
   current occupation vector 
     5  1  1  0
     5  1  1  0
       9          -112.500531706734051              0.9823067909D+01
   current occupation vector 
     5  1  1  0
     5  1  1  0
      10          -112.692735590723601              0.5376225481D+00
   current occupation vector 
     5  1  1  0
     5  1  1  0
      11          -112.745896637948334              0.2332027026D+00
   current occupation vector 
     5  1  1  0
     5  1  1  0
      12          -112.747044244464462              0.4571854019D-01
   current occupation vector 
     5  1  1  0
     5  1  1  0
      13          -112.747128843713597              0.2792731466D-01
   current occupation vector 
     5  1  1  0
     5  1  1  0
      14          -112.747134605980818              0.5897345040D-02
   current occupation vector 
     5  1  1  0
     5  1  1  0
      15          -112.747134739859263              0.7102026925D-03
   current occupation vector 
     5  1  1  0
     5  1  1  0
      16          -112.747134741002441              0.7355890246D-04
   current occupation vector 
     5  1  1  0
     5  1  1  0
      17          -112.747134741012445              0.3342640982D-05
   current occupation vector 
     5  1  1  0
     5  1  1  0
      18          -112.747134741012559              0.7002565849D-06
   current occupation vector 
     5  1  1  0
     5  1  1  0
      19          -112.747134741012530              0.1136235781D-06
   current occupation vector 
     5  1  1  0
     5  1  1  0
      20          -112.747134741012729              0.1865612931D-07
   current occupation vector 
     5  1  1  0
     5  1  1  0
      21          -112.747134741012843              0.1958946116D-08
   current occupation vector 
     5  1  1  0
     5  1  1  0
      22          -112.747134741013014              0.5240212708D-09
   current occupation vector 
     5  1  1  0
     5  1  1  0
      23          -112.747134741012871              0.1291375895D-09
   current occupation vector 
     5  1  1  0
     5  1  1  0

  SCF has converged.

 Density matrix saved to file den.dat
 total electron number:   14.000000000000004     
     E(SCF)=      -112.747134741012843              0.2815059297D-10

  Eigenvector printing suppressed.

 @PUTMOS-I, Writing converged MOs to NEWMOS. 
 @PUTMOS-I, Symmetry   1 Full Blocks  3 Partial Blocksize   2
 @PUTMOS-I, Symmetry   2 Full Blocks  1 Partial Blocksize   2
 @PUTMOS-I, Symmetry   3 Full Blocks  1 Partial Blocksize   2
 @PUTMOS-I, Symmetry   4 Full Blocks  0 Partial Blocksize   2
 @PUTFOCK-I, Writing converged Fock matrix to NEWFOCK. 
 @PUTFOCK-I, Symmetry   1 Full Blocks  3 Partial Blocksize   2
 @PUTFOCK-I, Symmetry   2 Full Blocks  1 Partial Blocksize   2
 @PUTFOCK-I, Symmetry   3 Full Blocks  1 Partial Blocksize   2
 @PUTFOCK-I, Symmetry   4 Full Blocks  0 Partial Blocksize   2



  ORBITAL EIGENVALUES (ALPHA)  (1H = 27.2113834 eV)

       MO #        E(hartree)               E(eV)           FULLSYM    COMPSYM
       ----   --------------------   --------------------   -------   ---------
    1     1         -20.6697015789        -562.4511744262     SG+        A1 (1)
    2     2         -11.3733124728        -309.4835662254     SG+        A1 (1)
    3     3          -1.5115647948         -41.1317691657     SG+        A1 (1)
    4     4          -0.8005908117         -21.7851835227     SG+        A1 (1)
    5    15          -0.6273717753         -17.0716539126      PI        B1 (2)
    6    21          -0.6273717753         -17.0716539126      PI        B2 (3)
    7     5          -0.5507009087         -14.9853335652     SG+        A1 (1)
  +++++++++++++++++++++++++++++++++++++++++++++++++++++++++++++++++++++++++++++
    8    16           0.1478926483           4.0243635544      PI        B1 (2)
    9    22           0.1478926483           4.0243635544      PI        B2 (3)
   10     6           0.3813730818          10.3776891485     SG+        A1 (1)
   11    17           0.6716031544          18.2752509284      PI        B1 (2)
   12    23           0.6716031544          18.2752509284      PI        B2 (3)
   13     7           0.7247599932          19.7217220466     SG+        A1 (1)
   14     8           0.9956617103          27.0933325347     SG+        A1 (1)
   15     9           1.0597364252          28.8368941688     SG+        A1 (1)
   16    24           1.2272257876          33.3945114260      PI        B2 (3)
   17    18           1.2272257876          33.3945114260      PI        B1 (2)
   18    10           1.3438075167          36.5668615533      DE        A1 (1)
   19    27           1.3438075167          36.5668615533      DE        A2 (4)
   20    19           1.5451186131          42.0448149791      PI        B1 (2)
   21    25           1.5451186131          42.0448149791      PI        B2 (3)
   22    11           1.9385817359          52.7514908673     SG+        A1 (1)
   23    12           2.3096381699          62.8484497559     SG+        A1 (1)
   24    28           2.9350073868          79.8656112839      DE        A2 (4)
   25    13           2.9350073868          79.8656112839      DE        A1 (1)
   26    26           3.4102256881          92.7969586800      PI        B2 (3)
   27    20           3.4102256881          92.7969586800      PI        B1 (2)
   28    14           3.8480498070         104.7107586410     SG+        A1 (1)


  VSCF finished.

 @CHECKOUT-I, Total execution time (CPU/WALL):        0.08/       0.02 seconds.
--executable xvscf finished with status     0 in        0.03 seconds (walltime).
 --invoking executable--
/opt/cfour/2.1/bin/xvtran
 @GETMEM-I,  Allocated    3814 MB of main memory.
  Full RHF integral transformation
  The following   2 MOs will be dropped:
    1  2
  There are  26 active molecular orbitals.
  Transformation of IIII integrals :
  1 pass through the AO integral file was required.
        3781 AO integrals were read.
        2754 MO integrals were written to HF2.
  Transformation of IIJJ integrals :
  1 pass through the AO integral file was required.
        4860 AO integrals were read.
        4048 MO integrals were written to HF2.
  Transformation of IJIJ integrals :
  1 pass through the AO integral file was required.
        7776 AO integrals were read.
        6299 MO integrals were written to HF2.
  Transformation of IJKL integrals :
  1 pass through the AO integral file was required.
        2708 AO integrals were read.
        2448 MO integrals were written to HF2.
  Summary of active molecular orbitals: 
------------------------------------------------------------------------

  Index      Eigenvalue    Symmetry    Index      Eigenvalue    Symmetry
------------------------------------------------------------------------
     1        -1.5115648        1        14         3.8480498        1
     2        -0.8005908        1        15         0.1478926        2
     3        -0.5507009        1        16         0.6716032        2
     4        -0.6273718        2        17         1.2272258        2
     5        -0.6273718        3        18         1.5451186        2
     6         0.3813731        1        19         3.4102257        2
     7         0.7247600        1        20         0.1478926        3
     8         0.9956617        1        21         0.6716032        3
     9         1.0597364        1        22         1.2272258        3
    10         1.3438075        1        23         1.5451186        3
    11         1.9385817        1        24         3.4102257        3
    12         2.3096382        1        25         1.3438075        4
    13         2.9350074        1        26         2.9350074        4
------------------------------------------------------------------------
  -1.5115647948176294      -0.80059081166284696      -0.55070090869495092      -0.62737177532098731      -0.62737177532098698       0.38137308184505786       0.72475999315115813       0.99566171026299433        1.0597364251885608        1.3438075167227646        1.9385817358818060        2.3096381698801540        2.9350073867927939        3.8480498070155011       0.14789264828223447       0.67160315444888974        1.2272257876462256        1.5451186130826049        3.4102256881197608       0.14789264828223458       0.67160315444889518        1.2272257876462249        1.5451186130826069        3.4102256881197581        1.3438075167227717        2.9350073867927913     
 @CHECKOUT-I, Total execution time (CPU/WALL):        0.03/       0.01 seconds.
--executable xvtran finished with status     0 in        0.02 seconds (walltime).
 --invoking executable--
/opt/cfour/2.1/bin/xintprc
 @GETMEM-I,  Allocated    3814 MB of main memory.
  @GMOIAA-I, Processing MO integrals for spin case AA.
  @GMOIAA-I, Generation of integral list completed.
                      TYPE                NUMBER
                      ----               --------
                      PPPP                  6655
                      PPPH                  5986
                      PPHH                  1448
                      PHPH                   961
                      PHHH                   450
                      HHHH                    49

                     TOTAL                 15549

  @FORMT2-I, Second-order MP correlation energies:
            ------------------------------------------------
            E(SCF)                  =   -112.747134741013 a.u.
            E2(AA)                  =     -0.038401188515 a.u.
            E2(AB)                  =     -0.212856005188 a.u.
            E2(TOT)                 =     -0.289658382218 a.u.
            Total MP2 energy        =   -113.036793123231 a.u.
            ------------------------------------------------
   Largest T2 amplitudes for spin case AB:
       _       _                 _       _                 _       _
   i   j   a   b             i   j   a   b             i   j   a   b
-----------------------------------------------------------------------------
[  5   5  20  20]-0.06844 [  4   4  15  15]-0.06844 [  4   5  15  20]-0.05514
[  5   4  20  15]-0.05514 [  3   3  20  20]-0.04086 [  3   3  15  15]-0.04086
[  3   3   7   7]-0.03826 [  4   4  17  17]-0.02812 [  5   5  22  22]-0.02812
[  5   5  22  20]-0.02392 [  5   5  20  22]-0.02392 [  4   4  15  17]-0.02392
[  4   4  17  15]-0.02392 [  2   2   9   9]-0.02270 [  5   4  22  17]-0.02182
-----------------------------------------------------------------------------
   Norm of T2AB vector (     2977 symmetry allowed elements):  0.2640660377.
-----------------------------------------------------------------------------
 @CHECKOUT-I, Total execution time (CPU/WALL):        0.03/       0.01 seconds.
--executable xintprc finished with status     0 in        0.03 seconds (walltime).
  calling xvcc 
 --invoking executable--
/opt/cfour/2.1/bin/xvcc
 @GETMEM-I,  Allocated    3814 MB of main memory.
   CCSD(T) energy will be calculated.
   The total correlation energy is -0.289658382218 a.u.
   The total correlation energy is -0.282449454067 a.u.
  Convergence information after     1 iterations: 
  Largest element of residual vector :  0.33504723E-01.
  Largest element of DIIS residual   :  0.33504723E-01.
   The total correlation energy is -0.295599171573 a.u.
  Convergence information after     2 iterations: 
  Largest element of residual vector : -0.10267245E-01.
  Largest element of DIIS residual   : -0.80940786E-02.
   The total correlation energy is -0.294858614540 a.u.
  Convergence information after     3 iterations: 
  Largest element of residual vector :  0.53976990E-02.
  Largest element of DIIS residual   :  0.23956446E-02.
   The total correlation energy is -0.296604825766 a.u.
  Convergence information after     4 iterations: 
  Largest element of residual vector : -0.70389987E-03.
  Largest element of DIIS residual   :  0.52090277E-03.
   The total correlation energy is -0.296735023167 a.u.
  Convergence information after     5 iterations: 
  Largest element of residual vector : -0.28449092E-03.
  Largest element of DIIS residual   :  0.57891022E-04.
   The total correlation energy is -0.296745161203 a.u.
  Convergence information after     6 iterations: 
  Largest element of residual vector :  0.35405342E-04.
  Largest element of DIIS residual   :  0.24995609E-04.
   The total correlation energy is -0.296747241307 a.u.
  Convergence information after     7 iterations: 
  Largest element of residual vector :  0.12616911E-04.
  Largest element of DIIS residual   : -0.38778782E-05.
   The total correlation energy is -0.296747389613 a.u.
  Convergence information after     8 iterations: 
  Largest element of residual vector :  0.46254593E-05.
  Largest element of DIIS residual   :  0.38431285E-05.
   The total correlation energy is -0.296748074915 a.u.
  Convergence information after     9 iterations: 
  Largest element of residual vector : -0.71544687E-06.
  Largest element of DIIS residual   :  0.53637923E-06.
   The total correlation energy is -0.296748002238 a.u.
  Convergence information after    10 iterations: 
  Largest element of residual vector :  0.50239973E-06.
  Largest element of DIIS residual   :  0.19966094E-06.
   The total correlation energy is -0.296748038008 a.u.
  Convergence information after    11 iterations: 
  Largest element of residual vector : -0.42945337E-07.
  Largest element of DIIS residual   :  0.35733100E-07.
   The total correlation energy is -0.296748042953 a.u.
  Convergence information after    12 iterations: 
  Largest element of residual vector :  0.18742043E-07.
  Largest element of DIIS residual   : -0.72600306E-08.
   The total correlation energy is -0.296748042467 a.u.
  Convergence information after    13 iterations: 
  Largest element of residual vector :  0.37189408E-08.
  Largest element of DIIS residual   :  0.27189905E-08.
  Amplitude equations converged in    13iterations.
   The total correlation energy is -0.296748042442 a.u.
   The CC iterations have converged.

   Largest T1 amplitudes for spin case AA:
   i       a                 i       a                 i       a    
-----------------------------------------------------------------------------
[  5      20    ] 0.03760 [  4      15    ] 0.03760 [  4      16    ] 0.01737
[  5      21    ] 0.01737 [  3       6    ] 0.01173 [  4      17    ]-0.00939
[  5      22    ]-0.00939 [  4      18    ] 0.00848 [  5      23    ] 0.00848
[  3       8    ]-0.00778 [  2       8    ] 0.00617 [  3       9    ] 0.00456
[  1      12    ]-0.00415 [  2       9    ]-0.00408 [  4      19    ] 0.00346
-----------------------------------------------------------------------------
   Norm of T1AA vector (       37 symmetry allowed elements):  0.0641670681.
-----------------------------------------------------------------------------
   Largest T2 amplitudes for spin case AB:
       _       _                 _       _                 _       _
   i   j   a   b             i   j   a   b             i   j   a   b
-----------------------------------------------------------------------------
[  5   5  20  20]-0.07877 [  4   4  15  15]-0.07877 [  3   3  15  15]-0.06121
[  3   3  20  20]-0.06121 [  5   4  20  15]-0.05206 [  4   5  15  20]-0.05206
[  3   3   7   7]-0.04621 [  4   4  17  17]-0.02765 [  5   5  22  22]-0.02765
[  5   5  22  20]-0.02714 [  5   5  20  22]-0.02714 [  4   4  17  15]-0.02714
[  4   4  15  17]-0.02714 [  3   3  18  15]-0.02515 [  3   3  15  18]-0.02515
-----------------------------------------------------------------------------
   Norm of T2AB vector (     2977 symmetry allowed elements):  0.2983792415.
-----------------------------------------------------------------------------
       Summary of iterative solution of CC equations 
      -----------------------------------------------------------
                       Correlation           Total
       Iteration         Energy              Energy
      -----------------------------------------------------------
            0        -0.289658382218    -113.036793123231  DIIS 
            1        -0.282449454067    -113.029584195080  DIIS 
            2        -0.295599171573    -113.042733912586  DIIS 
            3        -0.294858614540    -113.041993355553  DIIS 
            4        -0.296604825766    -113.043739566779  DIIS 
            5        -0.296735023167    -113.043869764180  DIIS 
            6        -0.296745161203    -113.043879902216  DIIS 
            7        -0.296747241307    -113.043881982320  DIIS 
            8        -0.296747389613    -113.043882130626  DIIS 
            9        -0.296748074915    -113.043882815928  DIIS 
           10        -0.296748002238    -113.043882743251  DIIS 
           11        -0.296748038008    -113.043882779020  DIIS 
           12        -0.296748042953    -113.043882783966  DIIS 
           13        -0.296748042442    -113.043882783455  DIIS 
      -----------------------------------------------------------
      A miracle has come to pass. The CC iterations have converged.
        E(CCSD)           =    -113.043882783455
        E(CCSD + T(CCSD)) =    -113.056665110115
        E(CCSD(T))        =    -113.054975980122
 @CHECKOUT-I, Total execution time (CPU/WALL):        0.18/       0.05 seconds.
--executable xvcc finished with status     0 in        0.06 seconds (walltime).
 --invoking executable--
/opt/cfour/2.1/bin/xlambda
 @GETMEM-I,  Allocated    3814 MB of main memory.
 The Lambda equations are solved for CCSD(T).
  Initial lambda amplitudes: 
  Convergence information after     1 iterations: 
  Largest element of residual vector : -0.30782278E-01.
  Largest element of DIIS residual   : -0.30782278E-01.
  Convergence information after     2 iterations: 
  Largest element of residual vector :  0.96230007E-02.
  Largest element of DIIS residual   : -0.25059389E-02.
  Convergence information after     3 iterations: 
  Largest element of residual vector : -0.12790157E-02.
  Largest element of DIIS residual   : -0.41226320E-03.
  Convergence information after     4 iterations: 
  Largest element of residual vector : -0.26389476E-03.
  Largest element of DIIS residual   : -0.87080571E-04.
  Convergence information after     5 iterations: 
  Largest element of residual vector : -0.53191881E-04.
  Largest element of DIIS residual   :  0.22416727E-04.
  Convergence information after     6 iterations: 
  Largest element of residual vector : -0.10311527E-04.
  Largest element of DIIS residual   : -0.66999547E-05.
  Convergence information after     7 iterations: 
  Largest element of residual vector : -0.38921747E-05.
  Largest element of DIIS residual   : -0.18676868E-05.
  Convergence information after     8 iterations: 
  Largest element of residual vector : -0.11204148E-05.
  Largest element of DIIS residual   : -0.38345012E-06.
  Convergence information after     9 iterations: 
  Largest element of residual vector : -0.20050495E-06.
  Largest element of DIIS residual   : -0.11434316E-06.
  Convergence information after    10 iterations: 
  Largest element of residual vector : -0.64828580E-07.
  Largest element of DIIS residual   : -0.48430360E-07.
  Convergence information after    11 iterations: 
  Largest element of residual vector : -0.24506448E-07.
  Largest element of DIIS residual   : -0.13404294E-07.
  Convergence information after    12 iterations: 
  Largest element of residual vector : -0.79947072E-08.
  Largest element of DIIS residual   : -0.43936384E-08.
  Amplitude equations converged in    12 iterations.
      The lambda equations have converged.
 @CHECKOUT-I, Total execution time (CPU/WALL):        0.07/       0.02 seconds.
--executable xlambda finished with status     0 in        0.02 seconds (walltime).
 --invoking executable--
/opt/cfour/2.1/bin/xprepfc2f
 @GETMEM-I,  Allocated    3814 MB of main memory.
  irrepalp is                    1                    1                    1                    1                    1                    1                    1                    1                    1                    1                    1                    1                    1                    1                    2                    2                    2                    2                    2                    2                    3                    3                    3                    3                    3                    3                    4                    4
 @CHECKOUT-I, Total execution time (CPU/WALL):        0.00/       0.01 seconds.
--executable xprepfc2f finished with status     0 in        0.02 seconds (walltime).
 --invoking executable--
/opt/cfour/2.1/bin/xvscf
  There are   28 functions in the AO basis.

  There are 4 irreducible representations.

       Irrep        # of functions
         1                 14
         2                  6
         3                  6
         4                  2


  Parameters for SCF calculation: 
        SCF reference function:  RHF  
  Maximum number of iterations:    0
     Full symmetry point group: CXv 
     Computational point group: C2v 
        Initial density matrix: MOREAD                 
     SCF convergence tolerance: 10**(-**)
  DIIS convergence acceleration:  ON
          Latest start for DIIS:   8
                     DIIS order:   6

     Alpha population by irrep:   5    1    1    0
      Beta population by irrep:   5    1    1    0


  Warning: SCF convergence tolerance of 10**(-**) is not too stringent.
           *****   Use results with CAUTION!!!   *****

  Memory information:      71522 words required.
  Fock matrices are constructed from AO integral file.
 @GETMEM-I,  Allocated       0 MB of main memory.
  Initialization and symmetry analysis required      0.006 seconds.

  here 
  starting vectors read from OLDMOS 
 @INITGES-I, Nonstandard initial guessing procedure. 
       0          -112.747134741012871              0.0000000000D+00


  calling reload        -8944076694213       -8944076694241       -8944076693279       -8944076692495

  SCF has converged.

 Density matrix saved to file den.dat
 total electron number:   14.000000000000004     
     E(SCF)=      -112.747134741012871              0.0000000000D+00



  Eigenvector printing suppressed.

 @PUTMOS-I, Writing converged MOs to NEWMOS. 
 @PUTMOS-I, Symmetry   1 Full Blocks  3 Partial Blocksize   2
 @PUTMOS-I, Symmetry   2 Full Blocks  1 Partial Blocksize   2
 @PUTMOS-I, Symmetry   3 Full Blocks  1 Partial Blocksize   2
 @PUTMOS-I, Symmetry   4 Full Blocks  0 Partial Blocksize   2
 @PUTMOS-I, NEWMOS already exists and will be deleted. 
 @PUTFOCK-I, Writing converged Fock matrix to NEWFOCK. 
 @PUTFOCK-I, Symmetry   1 Full Blocks  3 Partial Blocksize   2
 @PUTFOCK-I, Symmetry   2 Full Blocks  1 Partial Blocksize   2
 @PUTFOCK-I, Symmetry   3 Full Blocks  1 Partial Blocksize   2
 @PUTFOCK-I, Symmetry   4 Full Blocks  0 Partial Blocksize   2
 @PUTFOCK-I, NEWFOCK already exists and will be deleted. 



  ORBITAL EIGENVALUES (ALPHA)  (1H = 27.2113834 eV)

       MO #        E(hartree)               E(eV)           FULLSYM    COMPSYM
       ----   --------------------   --------------------   -------   ---------
    1     1         -20.6697015789        -562.4511744262     SG+        A1 (1)
    2     2         -11.3733124728        -309.4835662254     SG+        A1 (1)
    3     3          -1.5115647948         -41.1317691657     SG+        A1 (1)
    4     4          -0.8005908117         -21.7851835227     SG+        A1 (1)
    5    15          -0.6273717753         -17.0716539126      PI        B1 (2)
    6    21          -0.6273717753         -17.0716539126      PI        B2 (3)
    7     5          -0.5507009087         -14.9853335652     SG+        A1 (1)
  +++++++++++++++++++++++++++++++++++++++++++++++++++++++++++++++++++++++++++++
    8    16           0.1478926483           4.0243635544      PI        B1 (2)
    9    22           0.1478926483           4.0243635544      PI        B2 (3)
   10     6           0.3813730818          10.3776891485     SG+        A1 (1)
   11    17           0.6716031544          18.2752509284      PI        B1 (2)
   12    23           0.6716031544          18.2752509284      PI        B2 (3)
   13     7           0.7247599932          19.7217220466     SG+        A1 (1)
   14     8           0.9956617103          27.0933325347     SG+        A1 (1)
   15     9           1.0597364252          28.8368941688     SG+        A1 (1)
   16    24           1.2272257876          33.3945114260      PI        B2 (3)
   17    18           1.2272257876          33.3945114260      PI        B1 (2)
   18    10           1.3438075167          36.5668615533      DE        A1 (1)
   19    27           1.3438075167          36.5668615533      DE        A2 (4)
   20    19           1.5451186131          42.0448149791      PI        B1 (2)
   21    25           1.5451186131          42.0448149791      PI        B2 (3)
   22    11           1.9385817359          52.7514908673     SG+        A1 (1)
   23    12           2.3096381699          62.8484497559     SG+        A1 (1)
   24    28           2.9350073868          79.8656112839      DE        A2 (4)
   25    13           2.9350073868          79.8656112839      DE        A1 (1)
   26    26           3.4102256881          92.7969586800      PI        B2 (3)
   27    20           3.4102256881          92.7969586800      PI        B1 (2)
   28    14           3.8480498070         104.7107586410     SG+        A1 (1)


  VSCF finished.

 @CHECKOUT-I, Total execution time (CPU/WALL):        0.09/       0.03 seconds.
--executable xvscf finished with status     0 in        0.04 seconds (walltime).
 --invoking executable--
/opt/cfour/2.1/bin/xvtran
 @GETMEM-I,  Allocated    3814 MB of main memory.
  Full RHF integral transformation
  Transformation of IIII integrals :
  1 pass through the AO integral file was required.
        3781 AO integrals were read.
        4581 MO integrals were written to HF2.
  Transformation of IIJJ integrals :
  1 pass through the AO integral file was required.
        4860 AO integrals were read.
        5258 MO integrals were written to HF2.
  Transformation of IJIJ integrals :
  1 pass through the AO integral file was required.
        7776 AO integrals were read.
        8273 MO integrals were written to HF2.
  Transformation of IJKL integrals :
  1 pass through the AO integral file was required.
        2708 AO integrals were read.
        2880 MO integrals were written to HF2.
  Summary of active molecular orbitals: 
------------------------------------------------------------------------

  Index      Eigenvalue    Symmetry    Index      Eigenvalue    Symmetry
------------------------------------------------------------------------
     1       -20.6697016        1        15         2.9350074        1
     2       -11.3733125        1        16         3.8480498        1
     3        -1.5115648        1        17         0.1478926        2
     4        -0.8005908        1        18         0.6716032        2
     5        -0.5507009        1        19         1.2272258        2
     6        -0.6273718        2        20         1.5451186        2
     7        -0.6273718        3        21         3.4102257        2
     8         0.3813731        1        22         0.1478926        3
     9         0.7247600        1        23         0.6716032        3
    10         0.9956617        1        24         1.2272258        3
    11         1.0597364        1        25         1.5451186        3
    12         1.3438075        1        26         3.4102257        3
    13         1.9385817        1        27         1.3438075        4
    14         2.3096382        1        28         2.9350074        4
------------------------------------------------------------------------
  -20.669701578867784       -11.373312472803113       -1.5115647948176294      -0.80059081166284696      -0.55070090869495092      -0.62737177532098731      -0.62737177532098698       0.38137308184505786       0.72475999315115813       0.99566171026299433        1.0597364251885608        1.3438075167227646        1.9385817358818060        2.3096381698801540        2.9350073867927939        3.8480498070155011       0.14789264828223447       0.67160315444888974        1.2272257876462256        1.5451186130826049        3.4102256881197608       0.14789264828223458       0.67160315444889518        1.2272257876462249        1.5451186130826069        3.4102256881197581        1.3438075167227717        2.9350073867927913     
 @CHECKOUT-I, Total execution time (CPU/WALL):        0.04/       0.01 seconds.
--executable xvtran finished with status     0 in        0.02 seconds (walltime).
 --invoking executable--
/opt/cfour/2.1/bin/xintprc
 @GETMEM-I,  Allocated    3814 MB of main memory.
  @GMOIAA-I, Processing MO integrals for spin case AA.
  @GMOIAA-I, Generation of integral list completed.
                      TYPE                NUMBER
                      ----               --------
                      PPPP                  6655
                      PPPH                  8365
                      PPHH                  2785
                      PHPH                  1787
                      PHHH                  1216
                      HHHH                   184

                     TOTAL                 20992
 @CHECKOUT-I, Total execution time (CPU/WALL):        0.04/       0.01 seconds.
--executable xintprc finished with status     0 in        0.02 seconds (walltime).
 --invoking executable--
/opt/cfour/2.1/bin/xfillfc
 @GETMEM-I,  Allocated    3814 MB of main memory.
 @CHECKOUT-I, Total execution time (CPU/WALL):        0.01/       0.01 seconds.
--executable xfillfc finished with status     0 in        0.01 seconds (walltime).
 --invoking executable--
/opt/cfour/2.1/bin/xdens
 @GETMEM-I,  Allocated    3814 MB of main memory.
  CCSD(T) density and intermediates are calculated.
  The perturbed orbitals are chosen canonical.
  The iterative expansion of D(ai) converged after  16 iterations.
  ----------------------------------------------------------------------
                 Natural orbital occupation numbers
  ----------------------------------------------------------------------
  2.00002  2.00001  1.98428  1.96814  1.94143  1.93648  1.93648  0.06628
  0.06628  0.02418  0.01214  0.00854  0.00742  0.00742  0.00650  0.00624
  0.00624  0.00483  0.00483  0.00218  0.00200  0.00200  0.00172  0.00172
  0.00106  0.00067  0.00067  0.00022
  Trace of density matrix :  14.0000000000.
  ----------------------------------------------------------------------
  Density calculation successfully completed.
 @CHECKOUT-I, Total execution time (CPU/WALL):        0.07/       0.02 seconds.
--executable xdens finished with status     0 in        0.03 seconds (walltime).
 --invoking executable--
/opt/cfour/2.1/bin/xanti
 @GETMEM-I,  Allocated    3814 MB of main memory.
 CCSD(T) MO gammas will be sorted to Mulliken order.
 @CHECKOUT-I, Total execution time (CPU/WALL):        0.02/       0.00 seconds.
--executable xanti finished with status     0 in        0.01 seconds (walltime).
 --invoking executable--
/opt/cfour/2.1/bin/xbcktrn
 @GETMEM-I,  Allocated    3814 MB of main memory.
 @CHECKOUT-I, Total execution time (CPU/WALL):        0.02/       0.00 seconds.
--executable xbcktrn finished with status     0 in        0.01 seconds (walltime).
 --invoking executable--
/opt/cfour/2.1/bin/xvdint
 @GETMEM-I,  Allocated    3814 MB of main memory.
 One- and two-electron integral derivatives are calculated
 for RHF-CC/MBPT gradients and dipole moments.
 Spherical gaussians are used.

                     Kinetic energy integral gradient
                     --------------------------------

                         C #1 z    -1.7579482606
                         O #2 z     1.7579482606


 C #1       0.0000000000            0.0000000000           -1.7579482606
 O #2       0.0000000000            0.0000000000            1.7579482606



                   Nuclear attraction integral gradient
                   ------------------------------------

                         C #1 z    26.4362094809
                         O #2 z   -26.4362094809


 C #1       0.0000000000            0.0000000000           26.4362094809
 O #2       0.0000000000            0.0000000000          -26.4362094809



                      Reorthonormalization gradient
                      -----------------------------

                         C #1 z    -0.7705572021
                         O #2 z     0.7705572021


 C #1       0.0000000000            0.0000000000           -0.7705572021
 O #2       0.0000000000            0.0000000000            0.7705572021



                Electronic contributions to dipole moment
                -----------------------------------------

                               au             Debye

                    z     -0.06500667     -0.16523050

  Conversion factor used: 1 a.u. =   2.54174691 Debye 


 Evaluation of 1e integral derivatives required    0.13 seconds.
 Evaluation of 2el integral derivatives

                      Two-electron integral gradient
                      ------------------------------

                         C #1 z   -13.6482991595
                         O #2 z    13.6482991595


 C #1       0.0000000000            0.0000000000          -13.6482991595
 O #2       0.0000000000            0.0000000000           13.6482991595


 Evaluation of 2e integral derivatives required    0.11 seconds.

                            Molecular gradient
                            ------------------

                         C #1 z     0.0000005272
                         O #2 z    -0.0000005272


 C #1       0.0000000000            0.0000000000            0.0000005272
 O #2       0.0000000000            0.0000000000           -0.0000005272


  Molecular gradient norm 0.746E-06

                           Total dipole moment
                           -------------------

                               au             Debye

                    z     -0.06736418     -0.17122271

  Conversion factor used: 1 a.u. =   2.54174691 Debye 


 @CHECKOUT-I, Total execution time (CPU/WALL):        0.24/       0.08 seconds.
--executable xvdint finished with status     0 in        0.09 seconds (walltime).
 --invoking executable--
/opt/cfour/2.1/bin/xjoda
   JODA beginning optimization cycle #  1.
  igrd and ihes are                     0                    0
  gradient from JOBARC 
   0.000000000000000   0.000000000000000   0.000000527236304
   0.000000000000000   0.000000000000000  -0.000000527236304

   Internal coordinate energy gradients (atomic units): 
                     R                 dV/dR
 [rCO  ]    2.163015072132147    0.000000527236304
                    0                    0                    0 ****
   Optimization cycle  1.  Updating structure with Newton-Raphson step.
  @EFOL-I, Current internal coordinate Hessian written to FCMINT.
   Hessian matrix in totally symmetric symmetry coordinates: 
              rCO  
  rCO        1.000000
   The eigenvectors of the Hessian matrix: 
                   1
  rCO        1.000000
   The eigenvalues of the Hessian matrix: 
     1.00000
   Gradients along Hessian eigenvectors: 
     0.00000
   There are  0 negative eigenvalues.
   Summary of Optimization Cycle: 
   The maximum unscaled step is:    0.00000.
   Scale factor set to:  1.00000.
   Forces are in hartree/bohr and hartree/radian.
   Parameter values are in Angstroms and degrees.
--------------------------------------------------------------------------
  Parameter     dV/dR           Step          Rold            Rnew
--------------------------------------------------------------------------
    rCO     0.0000005272   -0.0000002790    1.1446182774    1.1446179984
--------------------------------------------------------------------------
  Minimum force:  0.000000527 / RMS force:  0.000000527
--------------------------------------------------------------------------------
   RMS gradient is below .10000E-04.
   Convergence criterion satisfied.  Optimization completed.
--------------------------------------------------------------------------------
   Interatomic distance matrix (Angstroms) 

                 C             O    
                [ 1]        [ 2]
  C    [ 1]     0.00000
  O    [ 2]     1.14462     0.00000
 @EFOL-I, Writing out completion flag to disk

********************************************************************************
*                          Final ZMATnew file                                  *
********************************************************************************
Optimization on CO                                                              
C                                                                               
O 1 rCO*                                                                        
                                                                                
rCO  =        1.144617998380277                                                 
                                                                                
*ACES2(CALC = CCSD(T)                                                           
      BASIS = SPECIAL                                                           
FROZEN_CORE = ON                                                                
   SCF_CONV = 10                                                                
    CC_CONV = 8                                                                 
 LINEQ_CONV = 8                                                                 
   SCF_MAXCYC = 500                                                             
    CC_MAXCYC = 500                                                             
 LINEQ_MAXCYC = 500                                                             
       MEMORY = 4                                                               
     MEM_UNIT = GB)                                                             
                                                                                
C:cc-pVDZ                                                                       
O:cc-pVDZ                                                                       
                                                                                
********************************************************************************
--executable xjoda finished with status     0 in        0.01 seconds (walltime).
 --invoking executable--
/opt/cfour/2.1/bin/xvprop
 @GETMEM-I,  Allocated    3814 MB of main memory.
   Property integrals will be calculated.
    --------------------------------------------------------------
                                   Property evaluated at 
    Property type                X             Y             Z
    --------------------------------------------------------------
    Dipole moment               ----          ----          ----  
    Quadrupole moment           ----          ----          ----  
    Octopole moment             ----          ----          ----  
    Relativisitic corr.         ----          ----          ----  
    Second moment            0.0000000     0.0000000     0.0000000
    Electron density        -0.0000000     0.0000000     1.2358402
    Electron density         0.0000000     0.0000000    -0.9271749
    Field gradient          -0.0000000     0.0000000     1.2358402
    Field gradient           0.0000000     0.0000000    -0.9271749
    Potential               -0.0000000     0.0000000     1.2358402
    Potential                0.0000000     0.0000000    -0.9271749
    --------------------------------------------------------------
 @CHECKOUT-I, Total execution time (CPU/WALL):        0.22/       0.06 seconds.
--executable xvprop finished with status     0 in        0.07 seconds (walltime).
 --invoking executable--
/opt/cfour/2.1/bin/xprops
  occupation vector                     5
  @DRVPRP-I, Properties computed from the SCF density matrix follow.
   Components of electric dipole moment 
        X =    0.0000000000   Y =    0.0000000000   Z =    0.1235654289
   Components of second moment 
       XX =    7.4865600227  YY =    7.4865600227  ZZ =   25.0673750014
       XY =    0.0000000000  XZ =    0.0000000000  YZ =    0.0000000000
   Components of electric quadrupole moment 
       XX =    0.7698915155  YY =    0.7698915155  ZZ =   -1.5397830311
       XY =    0.0000000000  XZ =    0.0000000000  YZ =    0.0000000000
   Components of electric octopole moment 
      XXX =    0.0000000000 YYY =    0.0000000000 ZZZ =   -4.1052613563
      XXY =    0.0000000000 XXZ =    2.0526306782 XYY =    0.0000000000
      YYZ =    2.0526306782 XZZ =    0.0000000000 YZZ =    0.0000000000
      XYZ =   -0.0000000000
  Relativistic correction to the energy 
      Darwin =    0.2605027414 p**4   =   -0.3270645478 Total  =   -0.0665618063
   Charge densities at atomic centers 
          Z-matrix                               Charge
           center                               Density
              1                            121.8191508663
              2                            297.9245490261
   Electric field gradient at atomic centers 
                             Z-matrix center   1:
  Atomic charge is                     6
       XX =    0.4972941524  YY =    0.4972941524  ZZ =   -0.9945883047
       XY =    0.0000000000  XZ =    0.0000000000  YZ =    0.0000000000
                             Z-matrix center   2:
  Atomic charge is                     8
       XX =    0.2369114207  YY =    0.2369114207  ZZ =   -0.4738228413
       XY =    0.0000000000  XZ =    0.0000000000  YZ =    0.0000000000
   Electrostatic potential at atomic centers 
          Z-matrix                             Potential
           center                               [<1/r>]
              1                            -14.6284065641
              2                            -22.2390277995
  @DRVPRP-I, Properties computed from the correlated density matrix follow.
   Components of electric dipole moment 
        X =    0.0000000000   Y =    0.0000000000   Z =   -0.0673641838
   Components of second moment 
       XX =    7.5154995191  YY =    7.5154995191  ZZ =   25.0598409480
       XY =    0.0000000000  XZ =    0.0000000000  YZ =    0.0000000000
   Components of electric quadrupole moment 
       XX =    0.7516547407  YY =    0.7516547407  ZZ =   -1.5033094814
       XY =    0.0000000000  XZ =    0.0000000000  YZ =    0.0000000000
   Components of electric octopole moment 
      XXX =    0.0000000000 YYY =    0.0000000000 ZZZ =   -3.2247632177
      XXY =    0.0000000000 XXZ =    1.6123816088 XYY =    0.0000000000
      YYZ =    1.6123816088 XZZ =    0.0000000000 YZZ =    0.0000000000
      XYZ =   -0.0000000000
  Relativistic correction to the energy 
      Darwin =    0.2604794738 p**4   =   -0.3271223476 Total  =   -0.0666428738
   Charge densities at atomic centers 
          Z-matrix                               Charge
           center                               Density
              1                            121.7504140350
              2                            297.9413310859
   Electric field gradient at atomic centers 
                             Z-matrix center   1:
  Atomic charge is                     6
       XX =    0.3800524606  YY =    0.3800524606  ZZ =   -0.7601049212
       XY =    0.0000000000  XZ =    0.0000000000  YZ =    0.0000000000
                             Z-matrix center   2:
  Atomic charge is                     8
       XX =    0.2617786267  YY =    0.2617786267  ZZ =   -0.5235572532
       XY =    0.0000000000  XZ =    0.0000000000  YZ =    0.0000000000
   Electrostatic potential at atomic centers 
          Z-matrix                             Potential
           center                               [<1/r>]
              1                            -14.6727435693
              2                            -22.2285809530

  Mulliken population analysis of SCF density.
   Total density is analyzed.

  Population analysis by orbitals.
 -------------------------------------------------------
     Z-matrix
      Center          Function          Population
 -------------------------------------------------------
         1                S              2.00130113
         1                S              1.78460704
         1                S             -0.01422083
         1                P              0.55694774
         1                P             -0.08104149
         1                P              0.55694774
         1                P             -0.08104149
         1                P              1.21905824
         1                P             -0.19057299
         1                D              0.00580340
         1                D              0.00000000
         1                D              0.04682544
         1                D              0.00580340
         1                D              0.04682544
         1                D              0.02321358
         2                S              2.00129680
         2                S              1.86709950
         2                S             -0.12615139
         2                P              1.48546560
         2                P             -0.01538921
         2                P              1.48546560
         2                P             -0.01538921
         2                P              1.56286538
         2                P             -0.15052240
         2                D              0.00173653
         2                D              0.00000000
         2                D              0.00719192
         2                D              0.00173653
         2                D              0.00719192
         2                D              0.00694610
 -------------------------------------------------------
  Population analysis by atoms (atomic charges).
 -------------------------------------------------------
     Z-matrix
      Center          Function          Population
 -------------------------------------------------------
         1                               5.88045634
         2                               8.11954366
 -------------------------------------------------------

  Mulliken population analysis of CCSD(T) density.
   Total density is analyzed.

  Population analysis by orbitals.
 -------------------------------------------------------
     Z-matrix
      Center          Function          Population
 -------------------------------------------------------
         1                S              2.00168512
         1                S              1.73985866
         1                S              0.03836414
         1                P              0.65126071
         1                P             -0.09475661
         1                P              0.65126071
         1                P             -0.09475661
         1                P              1.15633586
         1                P             -0.17694983
         1                D              0.00794229
         1                D              0.00318027
         1                D              0.04518030
         1                D              0.00794229
         1                D              0.04518030
         1                D              0.02540863
         2                S              2.00142769
         2                S              1.87735036
         2                S             -0.15455438
         2                P              1.45379107
         2                P             -0.04697955
         2                P              1.45379107
         2                P             -0.04697955
         2                P              1.55513682
         2                P             -0.14131105
         2                D              0.00403495
         2                D              0.00365338
         2                D              0.01031750
         2                D              0.00403495
         2                D              0.01031750
         2                D              0.00883302
 -------------------------------------------------------
  Population analysis by atoms (atomic charges).
 -------------------------------------------------------
     Z-matrix
      Center          Function          Population
 -------------------------------------------------------
         1                               6.00713623
         2                               7.99286377
 -------------------------------------------------------
 @CHECKOUT-I, Total execution time (CPU/WALL):        0.08/       0.02 seconds.
--executable xprops finished with status     0 in        0.03 seconds (walltime).
  The final electronic energy is      -113.054975980122435 a.u. 
  This computation required                            0.89 seconds (walltime).
Attempting to clean /scratch/jearias... save is False. TIME: Wed 05 Mar 2025 11:16:39 AM PST
Total of 1 seconds elapsed for this process.
