 --invoking executable--
/opt/cfour/2.1/bin/xjoda


   *************************************************************************
         <<<     CCCCCC     CCCCCC   |||     CCCCCC     CCCCCC   >>>
       <<<      CCC        CCC       |||    CCC        CCC         >>>
      <<<      CCC        CCC        |||   CCC        CCC            >>>
    <<<        CCC        CCC        |||   CCC        CCC              >>>
      <<<      CCC        CCC        |||   CCC        CCC            >>>
       <<<      CCC        CCC       |||    CCC        CCC         >>>
         <<<     CCCCCC     CCCCCC   |||     CCCCCC     CCCCCC   >>>
   *************************************************************************

     ****************************************************************
     * CFOUR Coupled-Cluster techniques for Computational Chemistry *
     ****************************************************************


   Department of Chemistry                Institut fuer Physikalische Chemie
   University of Florida                  Universitaet Mainz
   Gainesville, FL 32611, USA             D-55099 Mainz, Germany

   Department of Chemistry                Fakultaet fuer Chemie und Biowiss.
   Johns Hopkins University               Karlsruher Institut fuer Technologie
   Baltimore, MD 21218, USA               D-76131 Karlsruhe, Germany

   Department of Chemistry                Department of Physical Chemistry
   Southern Methodist University          Eotvos Lorand University
   Dallas, TX 75275, USA                  H-1053 Budapest, Hungary


                       Version 2.1

                     node023                                           
                     Fri 29 Aug 2025 12:34:41 PM PDT                   
                     integer*8 version is running

********************************************************************************
*                          Input from ZMAT file                                *
********************************************************************************
Optimization on FeCO4 (C2v), S0                                                 
FE                                                                              
X 1 RDX                                                                         
C 1 RC1* 2 AC1*                                                                 
C 1 RC1* 2 AC1* 3 D180                                                          
C 1 RC2* 2 AC2* 4 D90                                                           
C 1 RC2* 2 AC2* 3 D90                                                           
O 1 RO1* 2 AO1* 4 D180                                                          
O 1 RO1* 2 AO1* 3 D180                                                          
O 1 RO2* 2 AO2* 6 D180                                                          
O 1 RO2* 2 AO2* 5 D180                                                          
                                                                                
RDX  =   1.25                                                                   
RC1  =   1.7909849014                                                           
AC1  =  64.2318438633                                                           
RC2  =   1.8363212121                                                           
AC2  =  92.3318331396                                                           
RO1  =   2.9523251308                                                           
AO1  =  61.4286690430                                                           
RO2  =   2.9936446618                                                           
AO2  =  92.3103137454                                                           
D90  =  90.0                                                                    
D180 = 180.0                                                                    
                                                                                
*ACES2(CALC = CCSD(T)                                                           
      BASIS = SPECIAL                                                           
FROZEN_CORE = ON                                                                
 OCCUPATION = 18-10-10-3                                                        
   SCF_CONV = 9                                                                 
    CC_CONV = 7                                                                 
 LINEQ_CONV = 7                                                                 
   SCF_MAXCYC = 500                                                             
    CC_MAXCYC = 500                                                             
 LINEQ_MAXCYC = 500                                                             
       MEMORY = 32                                                              
     MEM_UNIT = GB)                                                             
                                                                                
Fe:aug-cc-pVDZ                                                                  
C:aug-cc-pVDZ                                                                   
C:aug-cc-pVDZ                                                                   
C:aug-cc-pVDZ                                                                   
C:aug-cc-pVDZ                                                                   
O:aug-cc-pVDZ                                                                   
O:aug-cc-pVDZ                                                                   
O:aug-cc-pVDZ                                                                   
O:aug-cc-pVDZ                                                                   
                                                                                
********************************************************************************
    -------------------------------------------------------------------
                    CFOUR Control Parameters 
    -------------------------------------------------------------------
        External           Internal           Value            Units
          Name               Name
    -------------------------------------------------------------------
       ABCDTYPE             IABCDT         STANDARD    [  0]    ***   
       ANHARMONIC           IANHAR         OFF         [  0]    ***   
       ANH_ALGORIT          IANALG         STANDARD    [  0]    ***   
       ANH_DERIVAT          IANDER         SECOND      [  1]    ***   
       ANH_MODE             ANHMOD         VIBRATION   [  0]    ***   
       ANH_STEPSIZ          ICUBST             50000          x 10-6  
       ANH_SYMMETR          IANHSM         ABELIAN     [  0]    ***   
       AO_LADDERS           IAOLAD         SINGLEPASS  [  1]    ***   
       AV_SCF               IAVSCF         OFF         [  0]    ***   
       BASIS                IBASIS         SPECIAL     [  0]    ***   
       BOTHVECTORS          BOTHVC         OFF         [  0]    ***   
       BOX_POTENT           IPIAB          OFF         [  0]    ***   
       BREIT                IBREIT         OFF         [  0]    ***   
       BRUCK_CONV           IBRTOL          10D-  4             ***   
       BRUECKNER            IBRKNR         OFF         [  0]    ***   
       BUFFERSIZE           IBUFFS              4096            ***   
       CACHE_RECS           ICHREC             10               ***   
       CALCLEVEL            ICLLVL         CCSD(T)     [ 22]    ***   
       CCORBOPT             ICCORB         OFF         [  0]  x 0.01  
       CC_CONV              ICCCNV          10D-  7             ***   
       CC_EXPORDER          ICCEOR              5               ***   
       CC_EXTRAPOL          ICCEXT         DIIS        [  1]    ***   
       CC_GUESS             ICCGES         MP2         [  0]    ***   
       CC_MAXCYC            ICCCYC            500              cycles 
       CC_PROGRAM           ICCPRO         VCC         [  0]    ***   
       CHARGE               ICHRGE              0               ***   
       CHOLESKY             ICHOLE         OFF         [  0]    ***   
       CIS_CONV             ICISTL              5               ***   
       COMM_SIZE            IPSIZE            ***               ***   
       CONSTANT             ICONST         OLD         [  1]    ***   
       CONTINUUM            ICONTU         NONE        [  0]    ***   
       CONTRACTION          ICNTYP         GENERAL     [  1]    ***   
       COORDINATES          ICOORD         INTERNAL    [  0]    ***   
       CPHF_CONVER          ICPHFT          10D- 16             ***   
       CPHF_MAXCYC          ICPHFC             64              cycles 
       CUBIC                ICUBIC         OFF         [  0]    ***   
       CURVILINEAR          ICURVY         OFF         [  0]    ***   
       DBOC                 IDBOC          OFF         [  0]    ***   
       DCT                  IDCT           OFF         [  0]    ***   
       DERIV_LEV            IDRLVL         FIRST       [  1]    ***   
       DEVMEM_SIZE          IDVMEM         *********           MByte  
       DIAG_MRCC            IEOMST          10D-  0             ***   
       DIFF_TYPE            IDIFTY         RELAXED     [  0]    ***   
       DIRECT               IDIRCT         OFF         [  0]    ***   
       DROPMO               IDRPMO      NONE         
       ECP                  IECP           OFF         [  0]    ***   
       EIGENVECTOR          IVEC                1               ***   
       EL_ANHARM            IELANH         OFF         [  0]    ***   
       EOMFOLLOW            IEOMSR         ENERGY      [  0]    ***   
       EOMIP                IEOMIP         OFF         [  0]    ***   
       EOMLEVEL             HBARFM         SAME        [  0]    ***   
       EOM_MRCC             IMRCCE         NEW         [  1]    ***   
       EOM_NONIT            EOMNON         OFF         [  0]    ***   
       EOM_NSING            IEOMSI          10D-  0             ***   
       EOM_NSTATES          IMRCCD         DAVIDSON    [  0]    ***   
       EOM_NTRIP            IEOMTR          10D-  0             ***   
       EOM_ORDER            IEXORD         ENERGY      [  0]    ***   
       EOM_PROPSTA          IEOMST              0               ***   
       ESTATE_CONV          IEXTOL          10D-  5             ***   
       ESTATE_DIAG          IEXDIG         ITERATIVE   [  0]    ***   
       ESTATE_LOCK          IESLOC         ON          [  1]    ***   
       ESTATE_MAXC          IEXMXC             40               ***   
       ESTATE_PROP          IEXPRP         OFF         [  0]    ***   
       EVAL_HESS            IRECAL              0            # of cyc.
       EXCITATION           IEXCIT              0               ***   
       EXCITE               IEXCIT         NONE        [  0]    ***   
       EXTERN_POT           IEXPOT         OFF         [  0]    ***   
       FCGRADNEW            IFCGNW         ON          [  1]    ***   
       FC_FIELD             IFINFC              0             x 10-6  
       FD_CALTYPE           IFDCAL         GRADONLY    [  0]    ***   
       FD_PROJECT           IFDPRJ         OFF         [  1]    ***   
       FD_STEPSIZE          IDISFD              0            10-4 bohr
       FD_USEGROUP          IFDGRP         FULL        [  0]    ***   
       FILE_RECSIZ          IFLREC              4096           words  
       FINITE_PERT          IFIPER              0             x 10-6  
       FIXGEOM              IFIXGM         OFF         [  0]    ***   
       FOCK                 IFOCK          AO          [  1]    ***   
       FREQ_ALGORI          IVIALG         STANDARD    [  0]    ***   
       FROZEN_CORE          IFROCO         ON          [  1]    ***   
       GAMMA_ABCD           IGABCD         STORE       [  0]    ***   
       GAMMA_ABCI           IGABCI         STORE       [  0]    ***   
       GENBAS_1             IGNBS1              0               ***   
       GENBAS_2             IGNBS2              0               ***   
       GENBAS_3             IGNBS3              0               ***   
       GENBAS_4             IGNBS4              0               ***   
       GEO_CONV             ICONTL              5              H/bohr 
       GEO_MAXCYC           IOPTCY             50               ***   
       GEO_MAXSTEP          IMXSTP            300            millibohr
       GEO_METHOD           INR            NR          [  0]    ***   
       GIAO                 IGIAO          OFF         [  1]    ***   
       GIMIC                IGIMIC         OFF         [  0]    ***   
       GRID                 IGRID          OFF         [  0]    ***   
       GRID_ALGO            IGALGO         SERIAL      [  0]    ***   
       GUESS                IGUESS         MOREAD      [  0]    ***   
       HBAR                 IHBAR          OFF         [  0]    ***   
       HESS_TYPE            IHESTP         SCF         [  0]    ***   
       HF2_FILE             IHF2Fl         USE         [  1]    ***   
       HFSTABILITY          ISTABL         OFF         [  0]    ***   
       INCORE               INCORE         OFF         [  0]    ***   
       INPUT_MRCC           IMRCC          ON          [  1]    ***   
       INTEGRALS            INTTYP         VMOL        [  1]    ***   
       JODA_PRINT           IJPRNT              0               ***   
       KEYWORD_OUT          IDMPKW         NO          [  0]    ***   
       LINDEP_TOL           ILINDP              8               ***   
       LINEQ_CONV           IZTACN          10D-  7           cycles  
       LINEQ_EXPOR          ILMAXD              5               ***   
       LINEQ_MAXCY          ILMAXC            500               ***   
       LINEQ_TYPE           ILTYPE         DIIS        [  1]    ***   
       LOCK_ORBOCC          ILOCOC         OFF         [  0]    ***   
       MEMORY_SIZE          IMEMSZ         *********           words  
       MEM_UNIT             IMEMU          GB          [  3]    ***   
       MRCC                 IMRCCC         OFF         [  0]    ***   
       MULTIPLICTY          IMULTP              1               ***   
       NACOUPLING           IVCOUP         OFF         [  0]    ***   
       NEGEVAL              IDIE           ABORT       [  0]    ***   
       NEWNORM              INEWNO         OFF         [  0]    ***   
       NON-HF               INONHF         OFF         [  0]    ***   
       NTOP_TAMP            ITOPT2             15               ***   
       NUC_MODEL            INUCMO         POINT       [  0]    ***   
       OCCUPATION           IOCCU   18, 10, 10,  3,
       OPEN-SHELL           IOPEN          SPIN-ORBITAL[  0]    ***   
       OPTVIB               IOPTVB         OFF         [  0]    ***   
       ORBITALS             IORBTP         STANDARD    [  0]    ***   
       PARALLEL             IPARAL         ON          [  1]    ***   
       PARA_INT             IPINTS         ON          [  1]    ***   
       PARA_PRINT           IPPRIN              0               ***   
       PERT_ORB             IPTORB         CANONICAL   [  1]    ***   
       POINTS               IGRDFD              0               ***   
       PRINT                IPRNT               0               ***   
       PROPS                IPROPS         OFF         [  0]    ***   
       PROP_INTEGR          IINTYP         INTERNAL    [  0]    ***   
       PSI                  IPSI           OFF         [  0]    ***   
       QC_ALG               IQCALG         FLM         [  0]    ***   
       QC_LINALG            IQCLIN         TRIDIAG     [  2]    ***   
       QC_MAXCYC            IQCMAX          10D-100           cycles  
       QC_MAXSCFCY          IQCMSC          10D- 15           cycles  
       QC_RTRUST            IQCRTR          10D-  0           x 10-3  
       QC_SKIPSCF           IQCSKI         OFF         [  0]    ***   
       QC_START             IQCSTA          10D-  1             ***   
       QRHFGUESS            IQGUES         OFF         [  0]    ***   
       QUARTIC              IQUART         OFF         [  0]    ***   
       RAMAN_INT            IRAMIN         OFF         [  0]    ***   
       RAMAN_ORB            IRAMRE         UNRELAXED   [  0]    ***   
       RDO                  IRDOFM         ON          [  1]    ***   
       REDUCE_REPR          REDREP         Ir          [  0]    ***   
       REFERENCE            IREFNC         RHF         [  0]    ***   
       RELATIVIST           IRELAT         OFF         [  0]    ***   
       RELAX_DENS           IRDENS         ON          [  1]    ***   
       RESET_FLAGS          IRESET         OFF         [  0]    ***   
       RESTART_CC           ICCRES         OFF         [  0]    ***   
       ROT_EVEC             ROTVEC              0               ***   
       SAVE_INTS            ISVINT         OFF         [  0]    ***   
       SCALE_ON             ISTCRT              0               ***   
       SCF_CONV             ISCFCV          10D-  9             ***   
       SCF_DAMPING          IDAMP               0             x 10-3  
       SCF_EXPORDE          IRPPOR              6               ***   
       SCF_EXPSTAR          IRPPLS              8               ***   
       SCF_EXTRAPO          IRPP           ON          [  1]    ***   
       SCF_MAXCYC           ISCFCY            500              cycles 
       SCF_NOSTOP           ISCFST         OFF         [  0]    ***   
       SCF_PRINT            ISCFPR              0               ***   
       SCF_PROG             ISCFPR         SCF         [  0]    ***   
       SD_FIELD             IFINSD              0             x 10-6  
       SOPERT               IPERSO         OFF         [  0]    ***   
       SPHERICAL            IDFGHI         ON          [  1]    ***   
       SPINORBIT            ISOCAL         OFF         [  0]    ***   
       SPINROTATIO          ISRCON         OFF         [  0]    ***   
       SPIN_FLIP            ISPFLP         OFF         [  0]    ***   
       SPIN_ORBIT           ISPORB         OFF         [  0]    ***   
       SPIN_SCAL            ISCSMP         OFF         [  0]    ***   
       STEEPSCALE           ISTPSC              1000          x 10-3  
       SUBGROUP             ISUBGP         DEFAULT     [  0]    ***   
       SUBGRPAXIS           ISBXYZ         X           [  0]    ***   
       SYMMETRY             ISYM           ON          [  0]    ***   
       SYM_CHECK            ISYMCK         OVERRIDE    [  1]    ***   
       T3_EXTRAPOL          IT3EXT         OFF         [  0]    ***   
       T4_EXTRAPOL          IT4EXP         OFF         [  0]    ***   
       TAMP_SUM             IEVERY              5               ***   
       TESTSUITE            ITESTS         OFF         [  0]    ***   
       THERMOCH             ITHERM         OFF         [  0]    ***   
       TOL_CHOLESK          ITOLCH          10D-  4             ***   
       TRANGRAD             IRESRM         OFF         [  0]    ***   
       TRANS_INV            ITRAIN         USE         [  0]    ***   
       TREAT_PERT           ITREAT         SIMULTANEOUS[  0]    ***   
       TRIP_ALGORI          ITRALG         NORMAL      [  0]    ***   
       UIJ_THRESHO          IUIJTH              1               ***   
       UNITS                IUNITS         ANGSTROM    [  0]    ***   
       UNOS                 IUNOS          OFF         [  0]    ***   
       UPDATE_HESS          IHUPDT         ON          [  1]    ***   
       VIBPHASE             ISETPH         STANDARD    [  0]    ***   
       VIBRATION            IVIB           NO          [  0]    ***   
       VIB_ALGORIT          IGEALG         STANDARD    [  0]    ***   
       VNATORB              IVNORB         OFF         [  0]    ***   
       VTRAN                IVTRAN         FULL/PARTIAL[  0]    ***   
       XFIELD               IXEFLD              0             x 10-6  
       XFORM_TOL            IXFTOL          10D- 11             ***   
       YFIELD               IYEFLD              0             x 10-6  
       ZFIELD               IZEFLD              0             x 10-6  
       ZSCALE_EXP           IZEXPS         OFF         [  0]    ***   
    -------------------------------------------------------------------
  10 entries found in Z-matrix 
   Job Title : Optimization on FeCO4 (C2v), S0                                                 
   There are 11 unique internal coordinates.
   Of these,  8 will be optimized.
   User supplied Z-matrix: 
--------------------------------------------------------------------------------
       SYMBOL    BOND      LENGTH    ANGLE     ANGLE     DIHED     ANGLE
                  TO      (ANGST)    WRT      (DEG)      WRT      (DEG)
--------------------------------------------------------------------------------
        FE   
        X          1         RDX  
        C          1         RC1        2        AC1  
        C          1         RC1        2        AC1        3        D180 
        C          1         RC2        2        AC2        4        D90  
        C          1         RC2        2        AC2        3        D90  
        O          1         RO1        2        AO1        4        D180 
        O          1         RO1        2        AO1        3        D180 
        O          1         RO2        2        AO2        6        D180 
        O          1         RO2        2        AO2        5        D180 
                  *Initial values for internal coordinates* 
                      Name             Value
                        RDX             1.2500000000
                        RC1             1.7909849014
                        AC1            64.2318438633
                        D180          180.0000000000
                        RC2             1.8363212121
                        AC2            92.3318331396
                        D90            90.0000000000
                        RO1             2.9523251308
                        AO1            61.4286690430
                        RO2             2.9936446618
                        AO2            92.3103137454
--------------------------------------------------------------------------------
  filter applied 
  filter applied 
   Rotational constants (in cm-1): 
          0.0261557849             0.0395931508             0.0501356563
   Rotational constants (in MHz): 
        784.1308147070          1186.9729665312          1503.0293754253
********************************************************************************
   The full molecular point group is C2v .
   The largest Abelian subgroup of the full molecular point group is C2v .
   The computational point group is C2v .
********************************************************************************
--------------------------------------------------------------------------------
   Analysis of internal coordinates specified by Z-matrix 
--------------------------------------------------------------------------------
   *The nuclear repulsion energy is  582.624423623814096 a.u.
   *There are   8 degrees of freedom within the tot. symm. molecular subspace.
   *Z-matrix requests optimization of   8 coordinates.
   *The optimization is unconstrained and your Z-matrix is great.
--------------------------------------------------------------------------------


 ----------------------------------------------------------------
         Coordinates used in calculation (QCOMP) 
 ----------------------------------------------------------------
 Z-matrix   Atomic            Coordinates (in bohr)
  Symbol    Number           X              Y              Z
 ----------------------------------------------------------------
     FE       26        -0.00000000     0.00000000    -0.65499865
     X         0        -0.00000000     0.00000000     1.70715950
     C         6        -0.00000000    -3.04792158     0.81633493
     C         6         0.00000000     3.04792158     0.81633493
     C         6         3.46727142    -0.00000000    -0.79618820
     C         6        -3.46727142     0.00000000    -0.79618820
     O         8        -0.00000000    -4.89967919     2.01321361
     O         8         0.00000000     4.89967919     2.01321361
     O         8         5.65257131    -0.00000000    -0.88304852
     O         8        -5.65257131     0.00000000    -0.88304852
 ----------------------------------------------------------------

   Interatomic distance matrix (Angstroms) 

                 FE            X             C             C             C    
                [ 1]        [ 2]        [ 3]        [ 4]        [ 5]
  FE   [ 1]     0.00000
  X    [ 2]     1.25000     0.00000
  C    [ 3]     1.79099     1.68037     0.00000
  C    [ 4]     1.79099     1.68037     3.22578     0.00000
  C    [ 5]     1.83632     2.26304     2.58767     2.58767     0.00000
  C    [ 6]     1.83632     2.26304     2.58767     2.58767     3.66960
  O    [ 7]     2.95233     2.59785     1.16678     4.25311     3.50703
  O    [ 8]     2.95233     2.59785     4.25311     1.16678     3.50703
  O    [ 9]     2.99365     3.29031     3.51532     3.51532     1.15732
  O    [10]     2.99365     3.29031     3.51532     3.51532     4.82623

                 C             O             O             O             O    
                [ 6]        [ 7]        [ 8]        [ 9]        [10]
  C    [ 6]     0.00000
  O    [ 7]     3.50703     0.00000
  O    [ 8]     3.50703     5.18560     0.00000
  O    [ 9]     4.82623     4.24487     4.24487     0.00000
  O    [10]     1.15732     4.24487     4.24487     5.98242     0.00000
 rotcon2
   Rotational constants (in cm-1): 
          0.0501356563             0.0395931508             0.0261557849
   Rotational constants (in MHz): 
       1503.0293754253          1186.9729665312           784.1308147070
  ECPDATA file not present.   Using default ECPDATA. 
  There are  17 frozen-core orbitals.
  There are  243 basis functions.
 @CHECKOUT-I, Total execution time (CPU/WALL):        1.28/       0.65 seconds.
--executable xjoda finished with status     0 in        0.70 seconds (walltime).
 --invoking executable--
/opt/cfour/2.1/bin/xvmol
 SERIAL VERSION OF MOLECULE STARTED
********************************************************************************
                    INPUT FROM MOL FILE
********************************************************************************
INTGRL        1    0    1    0    0    0    0    0    0                         
         *** CFOUR Program System (Release V0.1) ***                            
Optimization on FeCO4 (C2v), S0                                                 
    5    2 X  Y       0.10E-08              0    0                              
   9999.00      3.00                                                            
         26.00000000    1    4    1    1    1    1                              
FE#1  -0.000000000000000   0.000000000000000  -0.654998647441364                
   21    7                                                                      
   4316265.0000000000        8.0488029999999998E-006  -4.1559539999999997E-006  
   646342.40000000002        6.2583059999999998E-005  -3.2314010000000003E-005  
   147089.70000000001        3.2902389999999999E-004  -1.6995250000000000E-004  
   41661.519999999997        1.3873550000000001E-003  -7.1713690000000004E-004  
   13590.770000000000        5.0232560000000002E-003  -2.6036250000000000E-003  
   4905.7500000000000        1.6101399999999998E-002  -8.3991090000000001E-003  
   1912.7460000000001        4.5900339999999998E-002  -2.4341089999999999E-002  
   792.60429999999997       0.11361540000000001       -6.2519480000000002E-002  
   344.80650000000003       0.22838690000000000      -0.13659289999999999       
   155.89990000000000       0.32211590000000001      -0.23127070000000000       
   72.230909999999994       0.23836610000000000      -0.23837340000000001       
   32.725059999999999        7.4046669999999995E-002   3.1238370000000001E-002  
   15.667619999999999        9.2141970000000004E-002  0.50868179999999996      -
   7.5034830000000001        9.3397900000000006E-002  0.49876949999999998      -
   3.3122229999999999        1.5739650000000001E-002   9.0335520000000002E-002  
   1.5584709999999999       -4.1866819999999998E-004  -6.0053370000000003E-003  
  0.68391400000000002        5.3763179999999999E-005   2.3124539999999999E-004  
  0.14675700000000000       -3.8166539999999997E-005  -5.6436799999999999E-004  
   7.0583000000000007E-002   4.3196030000000000E-005   4.9922599999999997E-004  
   3.1448999999999998E-002  -3.4010190000000000E-006  -1.0152930000000000E-004  
   1.4010000000000000E-002   0.0000000000000000        0.0000000000000000       
   17    6                                                                      
   17745.689999999999        4.1000000000000000E-005  -1.5000000000000000E-005  
   4200.7209999999995        3.6900000000000002E-004  -1.2999999999999999E-004  
   1364.4290000000001        2.1289999999999998E-003  -7.5100000000000004E-004  
   522.08060000000000        9.3690000000000006E-003  -3.3289999999999999E-003  
   221.45949999999999        3.3097000000000001E-002  -1.1912000000000001E-002  
   100.90960000000000        9.4431000000000001E-002  -3.4932999999999999E-002  
   48.401150000000001       0.20807700000000001       -7.9989000000000005E-002  
   23.985360000000000       0.33233299999999999      -0.13463600000000001       
   12.182499999999999       0.33298699999999998      -0.13859800000000000       
   6.2422979999999999       0.15684300000000001        3.0277999999999999E-002  
   3.1109439999999999        2.1548999999999999E-002  0.33321600000000001      -
   1.5099579999999999       -2.0950000000000001E-003  0.45615299999999998      -
  0.71084499999999995       -1.7390000000000001E-003  0.28505100000000000      -
  0.27318999999999999       -2.9999999999999997E-004   4.6143999999999998E-002  
  0.10423300000000001        2.9000000000000000E-005  -3.2490000000000002E-003  
   3.8290999999999999E-002  -1.1000000000000000E-005   1.3569999999999999E-003  
   1.4069999999999999E-002   0.0000000000000000        0.0000000000000000       
    9    4                                                                      
   113.34399999999999        3.5300000000000002E-003  -3.8899999999999998E-003  
   33.641399999999997        2.5784000000000001E-002  -2.8441999999999999E-002  
   12.331000000000000        9.9118999999999999E-002 -0.11242900000000000       
   4.9947800000000004       0.23907300000000001      -0.27425699999999997       
   2.0728000000000000       0.35719899999999999      -0.31554599999999999       
  0.83075299999999996       0.36218800000000001        5.7109000000000000E-002  
  0.30917800000000001       0.23646100000000000       0.56360399999999999       
  0.10013000000000000        6.0117999999999998E-002  0.38463700000000001       
   3.2430000000000000E-002   0.0000000000000000        0.0000000000000000       
    3    2                                                                      
   3.2242999999999999       0.42224899999999999        0.0000000000000000       
  0.77580000000000005       0.77146800000000004        0.0000000000000000       
  0.27489999999999998        0.0000000000000000        1.0000000000000000       
          6.00000000    1    3    1    1    1                                   
C #2  -0.000000000000001  -3.047921581296841   0.816334929349109                
   10    4                                                                      
   6665.0000000000000        6.9200000000000002E-004  -1.4600000000000000E-004  
   1000.0000000000000        5.3290000000000004E-003  -1.1540000000000001E-003  
   228.00000000000000        2.7077000000000000E-002  -5.7250000000000001E-003  
   64.709999999999994       0.10171800000000000       -2.3311999999999999E-002  
   21.059999999999999       0.27473999999999998       -6.3954999999999998E-002  
   7.4950000000000001       0.44856400000000002      -0.14998100000000000       
   2.7970000000000002       0.28507399999999999      -0.12726199999999999       
  0.52149999999999996        1.5204000000000001E-002  0.54452900000000004       
  0.15959999999999999       -3.1909999999999998E-003  0.58049600000000001       
   4.6899999999999997E-002   0.0000000000000000        0.0000000000000000       
    5    3                                                                      
   9.4390000000000001        3.8108999999999997E-002   0.0000000000000000       
   2.0019999999999998       0.20948000000000000        0.0000000000000000       
  0.54559999999999997       0.50855700000000004        0.0000000000000000       
  0.15170000000000000       0.46884199999999998        1.0000000000000000       
   4.0410000000000001E-002   0.0000000000000000        0.0000000000000000       
    2    2                                                                      
  0.55000000000000004        1.0000000000000000        0.0000000000000000       
  0.15100000000000000        0.0000000000000000        1.0000000000000000       
          6.00000000    1    3    1    1    1                                   
C #3   3.467271420499379  -0.000000000000001  -0.796188196184146                
   10    4                                                                      
   6665.0000000000000        6.9200000000000002E-004  -1.4600000000000000E-004  
   1000.0000000000000        5.3290000000000004E-003  -1.1540000000000001E-003  
   228.00000000000000        2.7077000000000000E-002  -5.7250000000000001E-003  
   64.709999999999994       0.10171800000000000       -2.3311999999999999E-002  
   21.059999999999999       0.27473999999999998       -6.3954999999999998E-002  
   7.4950000000000001       0.44856400000000002      -0.14998100000000000       
   2.7970000000000002       0.28507399999999999      -0.12726199999999999       
  0.52149999999999996        1.5204000000000001E-002  0.54452900000000004       
  0.15959999999999999       -3.1909999999999998E-003  0.58049600000000001       
   4.6899999999999997E-002   0.0000000000000000        0.0000000000000000       
    5    3                                                                      
   9.4390000000000001        3.8108999999999997E-002   0.0000000000000000       
   2.0019999999999998       0.20948000000000000        0.0000000000000000       
  0.54559999999999997       0.50855700000000004        0.0000000000000000       
  0.15170000000000000       0.46884199999999998        1.0000000000000000       
   4.0410000000000001E-002   0.0000000000000000        0.0000000000000000       
    2    2                                                                      
  0.55000000000000004        1.0000000000000000        0.0000000000000000       
  0.15100000000000000        0.0000000000000000        1.0000000000000000       
          8.00000000    1    3    1    1    1                                   
O #4  -0.000000000000001  -4.899679194388058   2.013213606374131                
   10    4                                                                      
   11720.000000000000        7.1000000000000002E-004  -1.6000000000000001E-004  
   1759.0000000000000        5.4700000000000000E-003  -1.2630000000000000E-003  
   400.80000000000001        2.7837000000000001E-002  -6.2670000000000000E-003  
   113.70000000000000       0.10480000000000000       -2.5715999999999999E-002  
   37.030000000000001       0.28306199999999998       -7.0924000000000001E-002  
   13.270000000000000       0.44871899999999998      -0.16541100000000000       
   5.0250000000000004       0.27095200000000003      -0.11695500000000000       
   1.0129999999999999        1.5458000000000000E-002  0.55736799999999997       
  0.30230000000000001       -2.5850000000000001E-003  0.57275900000000002       
   7.8960000000000002E-002   0.0000000000000000        0.0000000000000000       
    5    3                                                                      
   17.699999999999999        4.3018000000000001E-002   0.0000000000000000       
   3.8540000000000001       0.22891300000000001        0.0000000000000000       
   1.0460000000000000       0.50872799999999996        0.0000000000000000       
  0.27529999999999999       0.46053100000000002        1.0000000000000000       
   6.8559999999999996E-002   0.0000000000000000        0.0000000000000000       
    2    2                                                                      
   1.1850000000000001        1.0000000000000000        0.0000000000000000       
  0.33200000000000002        0.0000000000000000        1.0000000000000000       
          8.00000000    1    3    1    1    1                                   
O #5   5.652571307893671  -0.000000000000001  -0.883048524953635                
   10    4                                                                      
   11720.000000000000        7.1000000000000002E-004  -1.6000000000000001E-004  
   1759.0000000000000        5.4700000000000000E-003  -1.2630000000000000E-003  
   400.80000000000001        2.7837000000000001E-002  -6.2670000000000000E-003  
   113.70000000000000       0.10480000000000000       -2.5715999999999999E-002  
   37.030000000000001       0.28306199999999998       -7.0924000000000001E-002  
   13.270000000000000       0.44871899999999998      -0.16541100000000000       
   5.0250000000000004       0.27095200000000003      -0.11695500000000000       
   1.0129999999999999        1.5458000000000000E-002  0.55736799999999997       
  0.30230000000000001       -2.5850000000000001E-003  0.57275900000000002       
   7.8960000000000002E-002   0.0000000000000000        0.0000000000000000       
    5    3                                                                      
   17.699999999999999        4.3018000000000001E-002   0.0000000000000000       
   3.8540000000000001       0.22891300000000001        0.0000000000000000       
   1.0460000000000000       0.50872799999999996        0.0000000000000000       
  0.27529999999999999       0.46053100000000002        1.0000000000000000       
   6.8559999999999996E-002   0.0000000000000000        0.0000000000000000       
    2    2                                                                      
   1.1850000000000001        1.0000000000000000        0.0000000000000000       
  0.33200000000000002        0.0000000000000000        1.0000000000000000       
FINISH                                                                          

Running with 32 threads/proc


********************************************************************************
 ONE- AND TWO-ELECTRON INTEGRALS OVER SYMMETRY-ADAPTED AOS ARE CALCULATED.

  SPHERICAL HARMONICS ARE USED.
  
  INTEGRALS LESS THAN  0.10E-13 ARE NEGLECTED.

  NUCLEAR REPULSION ENERGY :  582.6244236238 A.U.
  @MOLECU-I, ONE ELECTRON INTEGRALS (CPU/WALL):        1.32/       0.12 SECONDS.
  @TWOEL-I,   11406847 INTEGRALS OF SYMMETRY TYPE  I I I I
  @TWOEL-I,   43243476 INTEGRALS OF SYMMETRY TYPE  I J I J
  @TWOEL-I,   22306274 INTEGRALS OF SYMMETRY TYPE  I I J J
  @TWOEL-I,   32303212 INTEGRALS OF SYMMETRY TYPE  I J K L
  @TWOEL-I, TOTAL NUMBER OF 2-E INTEGRALS  109259809.
  @MOLECU-I, TWO ELECTRON INTEGRALS (CPU/WALL):      805.55/      35.68 SECONDS.
 @CHECKOUT-I, Total execution time (CPU/WALL):      806.93/      35.89 seconds.
--executable xvmol finished with status     0 in       35.92 seconds (walltime).
 --invoking executable--
/opt/cfour/2.1/bin/xvmol2ja
 @GETMEM-I,  Allocated   30517 MB of main memory.
 @CHECKOUT-I, Total execution time (CPU/WALL):        1.34/       0.09 seconds.
--executable xvmol2ja finished with status     0 in        0.12 seconds (walltime).
 --invoking executable--
/opt/cfour/2.1/bin/xvscf
  There are  243 functions in the AO basis.

  There are 4 irreducible representations.

       Irrep        # of functions
         1                 89
         2                 60
         3                 60
         4                 34


  Parameters for SCF calculation: 
        SCF reference function:  RHF  
  Maximum number of iterations:  500
     Full symmetry point group: C2v 
     Computational point group: C2v 
        Initial density matrix: MOREAD                 
     SCF convergence tolerance: 10**(- 9)
  DIIS convergence acceleration:  ON
          Latest start for DIIS:   8
                     DIIS order:   6

     Alpha population by irrep:  18   10   10    3
      Beta population by irrep:  18   10   10    3


  Memory information:    2408117 words required.
  Fock matrices are constructed from AO integral file.
 @GETMEM-I,  Allocated      18 MB of main memory.
  Initialization and symmetry analysis required      0.006 seconds.

 total no. of electrons in initial guess :   0.0000000000000000     
  --------------------------------------------------------------------
  Iteration         Total Energy            Largest Density Difference
  --------------------------------------------------------------------
       0           582.624423623814209              0.0000000000D+00
   current occupation vector 
    18 10 10  3
    18 10 10  3
       1         -1283.171739433269977              0.5776712375D+04
   current occupation vector 
    18 10 10  3
    18 10 10  3
       2         -1162.634739757896114              0.5738761063D+04
   current occupation vector 
    18 10 10  3
    18 10 10  3
       3         -1278.237356934062291              0.5718318950D+04
   current occupation vector 
    18 10 10  3
    18 10 10  3
       4         -1162.049810873518481              0.5721791102D+04
   current occupation vector 
    18 10 10  3
    18 10 10  3
       5         -1278.062258847817247              0.5704958868D+04
   current occupation vector 
    18 10 10  3
    18 10 10  3
       6         -1162.008122016626430              0.5705507107D+04
   current occupation vector 
    18 10 10  3
    18 10 10  3
       7         -1278.059585482546936              0.5704858935D+04
   current occupation vector 
    18 10 10  3
    18 10 10  3
       8         -1162.005862550734946              0.5704892659D+04
   current occupation vector 
    18 10 10  3
    18 10 10  3
       9         -1602.300760385491458              0.2701914930D+02
   current occupation vector 
    18 10 10  3
    18 10 10  3
      10         -1640.453618800149570              0.9230029739D+03
   current occupation vector 
    18 10 10  3
    18 10 10  3
      11         -1665.998379302176772              0.4093467311D+03
   current occupation vector 
    18 10 10  3
    18 10 10  3
      12         -1682.210014207656286              0.2691427902D+03
   current occupation vector 
    18 10 10  3
    18 10 10  3
      13         -1694.789968368298787              0.1469647043D+03
   current occupation vector 
    18 10 10  3
    18 10 10  3
      14         -1595.982721864746736              0.8786281001D+03
   current occupation vector 
    18 10 10  3
    18 10 10  3
      15         -1675.622854043324196              0.8400183452D+03
   current occupation vector 
    18 10 10  3
    18 10 10  3
      16         -1608.377432102762896              0.8303742631D+03
   current occupation vector 
    18 10 10  3
    18 10 10  3
      17         -1712.039603261929415              0.8320257698D+03
   current occupation vector 
    18 10 10  3
    18 10 10  3
      18         -1712.952751575863431              0.3085937094D+01
   current occupation vector 
    18 10 10  3
    18 10 10  3
      19         -1713.206214937848699              0.8368417271D+00
   current occupation vector 
    18 10 10  3
    18 10 10  3
      20         -1713.215256842606550              0.2856152574D+00
   current occupation vector 
    18 10 10  3
    18 10 10  3
      21         -1713.221798863027516              0.2107439043D+00
   current occupation vector 
    18 10 10  3
    18 10 10  3
      22         -1713.222807303424588              0.9348382051D-01
   current occupation vector 
    18 10 10  3
    18 10 10  3
      23         -1713.223352377730180              0.2656958261D-01
   current occupation vector 
    18 10 10  3
    18 10 10  3
      24         -1713.223699574827833              0.1292799158D-01
   current occupation vector 
    18 10 10  3
    18 10 10  3
      25         -1713.223970469425012              0.1447136823D-01
   current occupation vector 
    18 10 10  3
    18 10 10  3
      26         -1713.224156414190702              0.1420812585D-01
   current occupation vector 
    18 10 10  3
    18 10 10  3
      27         -1713.224210839974376              0.5476590250D-02
   current occupation vector 
    18 10 10  3
    18 10 10  3
      28         -1713.224253686302063              0.1357503684D-01
   current occupation vector 
    18 10 10  3
    18 10 10  3
      29         -1713.224266320054312              0.9884803827D-02
   current occupation vector 
    18 10 10  3
    18 10 10  3
      30         -1713.224286358520885              0.2047279502D-01
   current occupation vector 
    18 10 10  3
    18 10 10  3
      31         -1713.224293077898665              0.1501595710D-01
   current occupation vector 
    18 10 10  3
    18 10 10  3
      32         -1713.224294824199887              0.6201101809D-02
   current occupation vector 
    18 10 10  3
    18 10 10  3
      33         -1713.224295786784978              0.4548208308D-02
   current occupation vector 
    18 10 10  3
    18 10 10  3
      34         -1713.224296402868504              0.3834401005D-02
   current occupation vector 
    18 10 10  3
    18 10 10  3
      35         -1713.224296784654825              0.2382070265D-02
   current occupation vector 
    18 10 10  3
    18 10 10  3
      36         -1713.224297081728082              0.2230495655D-02
   current occupation vector 
    18 10 10  3
    18 10 10  3
      37         -1713.224297171217813              0.7156924192D-03
   current occupation vector 
    18 10 10  3
    18 10 10  3
      38         -1713.224297299056843              0.1336471967D-02
   current occupation vector 
    18 10 10  3
    18 10 10  3
      39         -1713.224297381304268              0.9004953613D-03
   current occupation vector 
    18 10 10  3
    18 10 10  3
      40         -1713.224297418640845              0.4769592219D-03
   current occupation vector 
    18 10 10  3
    18 10 10  3
      41         -1713.224297447000254              0.4805587148D-03
   current occupation vector 
    18 10 10  3
    18 10 10  3
      42         -1713.224297472015451              0.4130746868D-03
   current occupation vector 
    18 10 10  3
    18 10 10  3
      43         -1713.224297502331183              0.7661462231D-03
   current occupation vector 
    18 10 10  3
    18 10 10  3
      44         -1713.224297511679879              0.3450856199D-03
   current occupation vector 
    18 10 10  3
    18 10 10  3
      45         -1713.224297517274181              0.2834650737D-03
   current occupation vector 
    18 10 10  3
    18 10 10  3
      46         -1713.224297522368715              0.3416553642D-03
   current occupation vector 
    18 10 10  3
    18 10 10  3
      47         -1713.224297524673830              0.1856795895D-03
   current occupation vector 
    18 10 10  3
    18 10 10  3
      48         -1713.224297526260443              0.1291722378D-03
   current occupation vector 
    18 10 10  3
    18 10 10  3
      49         -1713.224297527876615              0.1768795531D-03
   current occupation vector 
    18 10 10  3
    18 10 10  3
      50         -1713.224297528793841              0.1267569956D-03
   current occupation vector 
    18 10 10  3
    18 10 10  3
      51         -1713.224297529547812              0.1451752656D-03
   current occupation vector 
    18 10 10  3
    18 10 10  3
      52         -1713.224297529610112              0.2263936888D-04
   current occupation vector 
    18 10 10  3
    18 10 10  3
      53         -1713.224297529793830              0.4374676689D-04
   current occupation vector 
    18 10 10  3
    18 10 10  3
      54         -1713.224297530043941              0.5962512378D-04
   current occupation vector 
    18 10 10  3
    18 10 10  3
      55         -1713.224297530034391              0.4814542683D-05
   current occupation vector 
    18 10 10  3
    18 10 10  3
      56         -1713.224297530151716              0.4394140133D-04
   current occupation vector 
    18 10 10  3
    18 10 10  3
      57         -1713.224297530214017              0.2398397387D-04
   current occupation vector 
    18 10 10  3
    18 10 10  3
      58         -1713.224297530254489              0.1515515299D-04
   current occupation vector 
    18 10 10  3
    18 10 10  3
      59         -1713.224297530269496              0.1914459042D-04
   current occupation vector 
    18 10 10  3
    18 10 10  3
      60         -1713.224297530277681              0.1853657411D-04
   current occupation vector 
    18 10 10  3
    18 10 10  3
      61         -1713.224297530274043              0.1911704866D-04
   current occupation vector 
    18 10 10  3
    18 10 10  3
      62         -1713.224297530298600              0.8438272280D-05
   current occupation vector 
    18 10 10  3
    18 10 10  3
      63         -1713.224297530294052              0.5720286678D-05
   current occupation vector 
    18 10 10  3
    18 10 10  3
      64         -1713.224297530303602              0.6387613715D-05
   current occupation vector 
    18 10 10  3
    18 10 10  3
      65         -1713.224297530294052              0.4591822183D-05
   current occupation vector 
    18 10 10  3
    18 10 10  3
      66         -1713.224297530304057              0.1524007904D-05
   current occupation vector 
    18 10 10  3
    18 10 10  3
      67         -1713.224297530288140              0.2948192776D-05
   current occupation vector 
    18 10 10  3
    18 10 10  3
      68         -1713.224297530315880              0.1879386268D-05
   current occupation vector 
    18 10 10  3
    18 10 10  3
      69         -1713.224297530304966              0.1409153065D-05
   current occupation vector 
    18 10 10  3
    18 10 10  3
      70         -1713.224297530307240              0.2105344055D-06
   current occupation vector 
    18 10 10  3
    18 10 10  3
      71         -1713.224297530318154              0.8791147899D-06
   current occupation vector 
    18 10 10  3
    18 10 10  3
      72         -1713.224297530345893              0.1915699842D-05
   current occupation vector 
    18 10 10  3
    18 10 10  3
      73         -1713.224297530333615              0.1037938757D-05
   current occupation vector 
    18 10 10  3
    18 10 10  3
      74         -1713.224297530312697              0.1024490664D-05
   current occupation vector 
    18 10 10  3
    18 10 10  3
      75         -1713.224297530307240              0.5528634741D-06
   current occupation vector 
    18 10 10  3
    18 10 10  3
      76         -1713.224297530288140              0.8671438598D-06
   current occupation vector 
    18 10 10  3
    18 10 10  3
      77         -1713.224297530284502              0.1086815605D-06
   current occupation vector 
    18 10 10  3
    18 10 10  3
      78         -1713.224297530322701              0.6035734659D-06
   current occupation vector 
    18 10 10  3
    18 10 10  3
      79         -1713.224297530306785              0.1849710505D-06
   current occupation vector 
    18 10 10  3
    18 10 10  3
      80         -1713.224297530282229              0.1307825381D-06
   current occupation vector 
    18 10 10  3
    18 10 10  3
      81         -1713.224297530305876              0.3744242782D-07
   current occupation vector 
    18 10 10  3
    18 10 10  3
      82         -1713.224297530313152              0.9445331184D-08
   current occupation vector 
    18 10 10  3
    18 10 10  3
      83         -1713.224297530313152              0.3506622592D-07
   current occupation vector 
    18 10 10  3
    18 10 10  3
      84         -1713.224297530299054              0.4251817209D-07
   current occupation vector 
    18 10 10  3
    18 10 10  3
      85         -1713.224297530297235              0.1669491123D-07
   current occupation vector 
    18 10 10  3
    18 10 10  3
      86         -1713.224297530308149              0.4560834599D-07
   current occupation vector 
    18 10 10  3
    18 10 10  3
      87         -1713.224297530327703              0.1231466840D-07
   current occupation vector 
    18 10 10  3
    18 10 10  3
      88         -1713.224297530329522              0.2057991066D-07
   current occupation vector 
    18 10 10  3
    18 10 10  3
      89         -1713.224297530283593              0.7191476792D-07
   current occupation vector 
    18 10 10  3
    18 10 10  3
      90         -1713.224297530303602              0.3006475779D-07
   current occupation vector 
    18 10 10  3
    18 10 10  3
      91         -1713.224297530320882              0.8892015124D-08
   current occupation vector 
    18 10 10  3
    18 10 10  3
      92         -1713.224297530309059              0.5233527833D-08
   current occupation vector 
    18 10 10  3
    18 10 10  3
      93         -1713.224297530305876              0.3199504128D-07
   current occupation vector 
    18 10 10  3
    18 10 10  3
      94         -1713.224297530306785              0.2008691258D-07
   current occupation vector 
    18 10 10  3
    18 10 10  3
      95         -1713.224297530302692              0.1629764101D-07
   current occupation vector 
    18 10 10  3
    18 10 10  3
      96         -1713.224297530305876              0.2342694705D-08
   current occupation vector 
    18 10 10  3
    18 10 10  3
      97         -1713.224297530338163              0.7597486640D-08
   current occupation vector 
    18 10 10  3
    18 10 10  3
      98         -1713.224297530314971              0.4521304664D-08
   current occupation vector 
    18 10 10  3
    18 10 10  3
      99         -1713.224297530322701              0.2134812549D-08
   current occupation vector 
    18 10 10  3
    18 10 10  3
     100         -1713.224297530308604              0.2784109165D-08
   current occupation vector 
    18 10 10  3
    18 10 10  3
     101         -1713.224297530304966              0.2003036403D-08
   current occupation vector 
    18 10 10  3
    18 10 10  3
     102         -1713.224297530286321              0.2420981637D-08
   current occupation vector 
    18 10 10  3
    18 10 10  3
     103         -1713.224297530298145              0.2228405904D-08
   current occupation vector 
    18 10 10  3
    18 10 10  3
     104         -1713.224297530295416              0.1197320021D-08
   current occupation vector 
    18 10 10  3
    18 10 10  3
     105         -1713.224297530300873              0.1059623833D-08
   current occupation vector 
    18 10 10  3
    18 10 10  3

  SCF has converged.

 Density matrix saved to file den.dat
 total electron number:   82.000000000000313     
     E(SCF)=     -1713.224297530293143              0.9113334531D-09

  Eigenvector printing suppressed.

 @PUTMOS-I, Writing converged MOs to NEWMOS. 
 @PUTMOS-I, Symmetry   1 Full Blocks 22 Partial Blocksize   1
 @PUTMOS-I, Symmetry   2 Full Blocks 15 Partial Blocksize   0
 @PUTMOS-I, Symmetry   3 Full Blocks 15 Partial Blocksize   0
 @PUTMOS-I, Symmetry   4 Full Blocks  8 Partial Blocksize   2
 @PUTFOCK-I, Writing converged Fock matrix to NEWFOCK. 
 @PUTFOCK-I, Symmetry   1 Full Blocks 22 Partial Blocksize   1
 @PUTFOCK-I, Symmetry   2 Full Blocks 15 Partial Blocksize   0
 @PUTFOCK-I, Symmetry   3 Full Blocks 15 Partial Blocksize   0
 @PUTFOCK-I, Symmetry   4 Full Blocks  8 Partial Blocksize   2



  ORBITAL EIGENVALUES (ALPHA)  (1H = 27.2113834 eV)

       MO #        E(hartree)               E(eV)           FULLSYM    COMPSYM
       ----   --------------------   --------------------   -------   ---------
    1     1        -261.3293511085       -7111.1331666873      A1        A1 (1)
    2     2         -31.8945255805        -867.8941639312      A1        A1 (1)
    3    90         -27.3862230123        -745.2170142651      B1        B1 (2)
    4   150         -27.3740868841        -744.8867734291      B2        B2 (3)
    5     3         -27.3625929202        -744.5740067705      A1        A1 (1)
    6    91         -20.6908898261        -563.0277359439      E         B1 (2)
    7     4         -20.6908889049        -563.0277108774      E         A1 (1)
    8   151         -20.6561176001        -562.0815355730      E         B2 (3)
    9     5         -20.6561173252        -562.0815280904      E         A1 (1)
   10    92         -11.4098572524        -310.4780002336      E         B1 (2)
   11     6         -11.4098540860        -310.4779140735      E         A1 (1)
   12     7         -11.3872629077        -309.8631768589      E         A1 (1)
   13   152         -11.3872619233        -309.8631500712      E         B2 (3)
   14     8          -4.0853197842        -111.1672029587      A1        A1 (1)
   15    93          -2.6802809115         -72.9341515033      B1        B1 (2)
   16   153          -2.6716568135         -72.6994778643      B2        B2 (3)
   17     9          -2.6524660944         -72.1772718509      A1        A1 (1)
   18    10          -1.5239359387         -41.4684051041      A1        A1 (1)
   19    94          -1.5238912324         -41.4671885850      B1        B1 (2)
   20    11          -1.4879057201         -40.4879730136      A1        A1 (1)
   21   154          -1.4877876965         -40.4847614277      B2        B2 (3)
   22    12          -0.8486649940         -23.0933485294      A1        A1 (1)
   23    95          -0.8249386653         -22.4477223037      B1        B1 (2)
   24    13          -0.8004233360         -21.7806262781      A1        A1 (1)
   25   155          -0.7982485770         -21.7214480769      B2        B2 (3)
   26    14          -0.7118953706         -19.3716578695      A1        A1 (1)
   27   210          -0.6639214549         -18.0662212574      A2        A2 (4)
   28   156          -0.6604028817         -17.9704760135      B2        B2 (3)
   29    96          -0.6571347083         -17.8815444933      B1        B1 (2)
   30    97          -0.6484208925         -17.6444295107      B1        B1 (2)
   31    15          -0.6482113402         -17.6387273019      A1        A1 (1)
   32   157          -0.6266161292         -17.0510917356      B2        B2 (3)
   33    16          -0.6254504141         -17.0193710171      A1        A1 (1)
   34   211          -0.6168823856         -16.7862231077      A2        A2 (4)
   35   158          -0.6109826278         -16.6256825355      B2        B2 (3)
   36    17          -0.6012588200         -16.3610842732      A1        A1 (1)
   37    98          -0.5978596049         -16.2685869277      B1        B1 (2)
   38    99          -0.4356064431         -11.8534539339      B1        B1 (2)
   39   212          -0.4323572180         -11.7650380234      A2        A2 (4)
   40    18          -0.3561071840          -9.6901691149      A1        A1 (1)
   41   159          -0.3334445706          -9.0734880540      B2        B2 (3)
  +++++++++++++++++++++++++++++++++++++++++++++++++++++++++++++++++++++++++++++
   42    19           0.0001301893           0.0035426313      A1        A1 (1)
   43    20           0.0257369011           0.7003366843      A1        A1 (1)
   44   100           0.0293822316           0.7995311691      B1        B1 (2)
   45   160           0.0298804975           0.8130896738      B2        B2 (3)
   46    21           0.0353025622           0.9606315541      A1        A1 (1)
   47   161           0.0796796451           2.1681933725      B2        B2 (3)
   48    22           0.0841626076           2.2901809841      A1        A1 (1)
   49   213           0.0878192238           2.3896825692      A2        A2 (4)
   50    23           0.0878388649           2.3902170313      A1        A1 (1)
   51   101           0.0883247480           2.4034385821      B1        B1 (2)
   52    24           0.0970503101           2.6408731983      A1        A1 (1)
   53   102           0.1043754815           2.8402012456      B1        B1 (2)
   54   162           0.1098412084           2.9889312361      B2        B2 (3)
   55   214           0.1128993573           3.0721476983      A2        A2 (4)
   56   163           0.1227185982           3.3393428248      B2        B2 (3)
   57   103           0.1250073428           3.4016227327      B1        B1 (2)
   58    25           0.1364118148           3.7119541931      A1        A1 (1)
   59   104           0.1386964999           3.7741236341      B1        B1 (2)
   60   164           0.1431419264           3.8950898404      B2        B2 (3)
   61    26           0.1443416164           3.9277350643      A1        A1 (1)
   62    27           0.1479689064           4.0264386439      A1        A1 (1)
   63   215           0.1484988231           4.0408584088      A2        A2 (4)
   64   165           0.1536392372           4.1807361898      B2        B2 (3)
   65   105           0.1545099687           4.2044299969      B1        B1 (2)
   66    28           0.1627044623           4.4274135036      A1        A1 (1)
   67   106           0.1628950435           4.4325994830      B1        B1 (2)
   68   166           0.1639455787           4.4611859978      B2        B2 (3)
   69    29           0.1788971207           4.8680381411      A1        A1 (1)
   70   216           0.1897437830           5.1631908257      A2        A2 (4)
   71   107           0.1910174454           5.1978489434      B1        B1 (2)
   72    30           0.1989062567           5.4125144128      A1        A1 (1)
   73   217           0.2143365668           5.8323944955      A2        A2 (4)
   74   167           0.2210263301           6.0144322099      B2        B2 (3)
   75    31           0.2300746241           6.2606488080      A1        A1 (1)
   76   168           0.2519670218           6.8563712333      B2        B2 (3)
   77    32           0.2648707150           7.2074985768      A1        A1 (1)
   78    33           0.2680683578           7.2945108608      A1        A1 (1)
   79   108           0.2687531845           7.3131459434      B1        B1 (2)
   80   169           0.3083681449           8.3911238190      B2        B2 (3)
   81   109           0.3149394683           8.5699386193      B1        B1 (2)
   82    34           0.3220627091           8.7637718558      A1        A1 (1)
   83    35           0.3317584644           9.0276067711      A1        A1 (1)
   84   110           0.3326181677           9.0510004865      B1        B1 (2)
   85   170           0.3377119108           9.1896082834      B2        B2 (3)
   86    36           0.3395022117           9.2383248469      A1        A1 (1)
   87   171           0.3443727316           9.3708584325      B2        B2 (3)
   88   218           0.3546323988           9.6500381703      A2        A2 (4)
   89   111           0.3701854991          10.0732595457      B1        B1 (2)
   90   219           0.3740694118          10.1789461823      A2        A2 (4)
   91    37           0.3774727486          10.2715556846      A1        A1 (1)
   92    38           0.4056433680          11.0381172113      A1        A1 (1)
   93    39           0.4257162319          11.5843276053      A1        A1 (1)
   94   112           0.4274005239          11.6301595208      B1        B1 (2)
   95   220           0.4281449502          11.6504163895      A2        A2 (4)
   96   172           0.4377866290          11.9127798079      B2        B2 (3)
   97   113           0.4404024876          11.9839609391      B1        B1 (2)
   98    40           0.4629440888          12.5973490928      A1        A1 (1)
   99    41           0.4877548257          13.2724835663      A1        A1 (1)
  100   114           0.4898632210          13.3298559204      B1        B1 (2)
  101   173           0.4907740987          13.3546421639      B2        B2 (3)
  102    42           0.5158813194          14.0378443707      A1        A1 (1)
  103   221           0.5174193280          14.0796957122      A2        A2 (4)
  104   174           0.5266634557          14.3312412163      B2        B2 (3)
  105   222           0.5471500912          14.8887109098      A2        A2 (4)
  106   175           0.5561936210          15.1347978652      B2        B2 (3)
  107    43           0.5600349811          15.2393265871      A1        A1 (1)
  108   115           0.5866622447          15.9638912676      B1        B1 (2)
  109   116           0.6101305139          16.6024953378      B1        B1 (2)
  110   176           0.6119047442          16.6507745991      B2        B2 (3)
  111    44           0.6299420126          17.1415936237      A1        A1 (1)
  112    45           0.6456832171          17.5699335746      A1        A1 (1)
  113   117           0.6713449013          18.2682235040      B1        B1 (2)
  114   177           0.7053645128          19.1939441947      B2        B2 (3)
  115    46           0.7086446983          19.2832025801      A1        A1 (1)
  116   223           0.7184098273          19.5489252482      A2        A2 (4)
  117   118           0.7229588774          19.6727111940      B1        B1 (2)
  118    47           0.7245893782          19.7170793786      A1        A1 (1)
  119   178           0.7565721312          20.5873743319      B2        B2 (3)
  120    48           0.7592032117          20.6589696721      A1        A1 (1)
  121   119           0.7594016912          20.6643705740      B1        B1 (2)
  122   224           0.7834826085          21.3196456463      A2        A2 (4)
  123   179           0.8070637208          21.9613203353      B2        B2 (3)
  124    49           0.8102925572          22.0491814415      A1        A1 (1)
  125   120           0.8892035638          24.1964590962      B1        B1 (2)
  126   180           0.9001748670          24.4950034327      B2        B2 (3)
  127    50           0.9075038345          24.6944347784      A1        A1 (1)
  128    51           0.9211015226          25.0644466818      A1        A1 (1)
  129   225           0.9438608455          25.6837593444      A2        A2 (4)
  130    52           0.9540685429          25.9615249103      A1        A1 (1)
  131   121           0.9720323159          26.4503440246      B1        B1 (2)
  132   181           0.9810470649          26.6956478151      B2        B2 (3)
  133    53           1.0303255899          28.0365846524      A1        A1 (1)
  134   182           1.0384173415          28.2567724077      B2        B2 (3)
  135    54           1.0523827514          28.6367905322      A1        A1 (1)
  136   122           1.0546678351          28.6989708196      B1        B1 (2)
  137   183           1.0785093780          29.3477321865      B2        B2 (3)
  138   123           1.0910874689          29.6899994399      B1        B1 (2)
  139   226           1.1189527020          30.4482509809      A2        A2 (4)
  140    55           1.1349018961          30.8822506169      A1        A1 (1)
  141   184           1.1680805819          31.7850885569      B2        B2 (3)
  142   124           1.1689930664          31.8099185229      B1        B1 (2)
  143    56           1.1729909619          31.9187067883      A1        A1 (1)
  144   227           1.1764380277          32.0125062178      A2        A2 (4)
  145   185           1.1784066230          32.0660744207      B2        B2 (3)
  146   186           1.2138078872          33.0293917913      B2        B2 (3)
  147    57           1.2166854286          33.1076936751      A1        A1 (1)
  148   228           1.2221785105          33.2571680320      A2        A2 (4)
  149   125           1.2324003743          33.5353190869      B1        B1 (2)
  150   229           1.2602374954          34.2928056622      A2        A2 (4)
  151    58           1.2609052998          34.3109775450      A1        A1 (1)
  152   126           1.2774687461          34.7616918329      B1        B1 (2)
  153   127           1.2789407431          34.8017469056      B1        B1 (2)
  154    59           1.2920195617          35.1576396537      A1        A1 (1)
  155   128           1.3296500923          36.1816184499      B1        B1 (2)
  156   230           1.3519082134          36.7872927158      A2        A2 (4)
  157   129           1.3944480036          37.9448592579      B1        B1 (2)
  158    60           1.3958891027          37.9840735583      A1        A1 (1)
  159    61           1.4056102586          38.2485996581      A1        A1 (1)
  160   187           1.4069546195          38.2851815772      B2        B2 (3)
  161   188           1.4447590486          39.3138923909      B2        B2 (3)
  162    62           1.4672232613          39.9251746967      A1        A1 (1)
  163   130           1.4689068510          39.9709875012      B1        B1 (2)
  164   231           1.4703547488          40.0103868046      A2        A2 (4)
  165   189           1.4812842014          40.3077923294      B2        B2 (3)
  166    63           1.5346266639          41.7593145277      A1        A1 (1)
  167   190           1.5730398508          42.8045904827      B2        B2 (3)
  168    64           1.5766412643          42.9025899276      A1        A1 (1)
  169    65           1.6310786099          44.3839054104      A1        A1 (1)
  170   131           1.6609567443          45.1969307787      B1        B1 (2)
  171   191           1.6623495633          45.2348313105      B2        B2 (3)
  172   232           1.6661651401          45.3386584346      A2        A2 (4)
  173    66           1.6849126268          45.8488034830      A1        A1 (1)
  174   192           1.6927342333          46.0616402161      B2        B2 (3)
  175   132           1.7087238943          46.4967410127      B1        B1 (2)
  176   233           1.7305483371          47.0906142940      A2        A2 (4)
  177   193           1.7586749730          47.8559789676      B2        B2 (3)
  178   234           1.7699305544          48.1622589070      A2        A2 (4)
  179   133           1.7760359530          48.3283952485      B1        B1 (2)
  180   134           1.7982933188          48.9340489642      B1        B1 (2)
  181    67           1.8036764857          49.0805323820      A1        A1 (1)
  182    68           1.8372882857          49.9951559586      A1        A1 (1)
  183   235           1.8431284563          50.1540750791      A2        A2 (4)
  184   194           1.8530992608          50.4253944642      B2        B2 (3)
  185   135           1.8547087313          50.4691903836      B1        B1 (2)
  186   136           1.9121893264          52.0333168950      B1        B1 (2)
  187    69           1.9139441259          52.0810674172      A1        A1 (1)
  188   195           1.9402263227          52.7962423495      B2        B2 (3)
  189    70           1.9776557684          53.8147493467      A1        A1 (1)
  190   196           2.0132682833          54.7838151426      B2        B2 (3)
  191   236           2.0141562521          54.8079780041      A2        A2 (4)
  192   137           2.0813755494          56.6371080733      B1        B1 (2)
  193    71           2.1028481971          57.2214085223      A1        A1 (1)
  194   237           2.1719978426          59.1030660378      A2        A2 (4)
  195    72           2.1889023044          59.5630598301      A1        A1 (1)
  196   197           2.3003820183          62.5965770655      B2        B2 (3)
  197   138           2.3125884335          62.9287305107      B1        B1 (2)
  198    73           2.3767867442          64.6756553551      A1        A1 (1)
  199    74           2.4676546215          67.1482960036      A1        A1 (1)
  200    75           2.5005641310          68.0438092837      A1        A1 (1)
  201   198           2.5220765731          68.6291925958      B2        B2 (3)
  202   199           2.5700464130          69.9345182995      B2        B2 (3)
  203   139           2.6266387943          71.4744752860      B1        B1 (2)
  204   200           2.7532463294          74.9196414642      B2        B2 (3)
  205   140           2.7633910582          75.1956935685      B1        B1 (2)
  206   238           2.8369676829          77.1978153122      A2        A2 (4)
  207    76           2.8637067077          77.9254211686      A1        A1 (1)
  208   141           2.9342642646          79.8453899009      B1        B1 (2)
  209    77           3.0368185668          82.6360343376      A1        A1 (1)
  210   201           3.1224893279          84.9672542641      B2        B2 (3)
  211    78           3.1419978038          85.4981068817      A1        A1 (1)
  212    79           3.2830877243          89.3373588006      A1        A1 (1)
  213   142           3.2891333580          89.5018688587      B1        B1 (2)
  214   143           3.5841333375          97.5292264048      B1        B1 (2)
  215    80           3.5966372387          97.8694748538      A1        A1 (1)
  216   202           3.5996086910          97.9503321802      B2        B2 (3)
  217   239           3.6072499526          98.1582614793      A2        A2 (4)
  218   203           3.6178791290          98.4474960740      B2        B2 (3)
  219   240           3.6410102268          99.0769252445      A2        A2 (4)
  220   144           3.6705975016          99.8820359228      B1        B1 (2)
  221   204           3.6787930648         100.1050485345      B2        B2 (3)
  222    81           3.6910603979         100.4388596403      A1        A1 (1)
  223   145           3.7229157044         101.3056865991      B1        B1 (2)
  224   241           3.7337441514         101.6003436208      A2        A2 (4)
  225    82           3.7353839516         101.6449648545      A1        A1 (1)
  226   146           3.7874700512         103.0622996800      B1        B1 (2)
  227    83           3.7907827761         103.1524435061      A1        A1 (1)
  228   242           3.8123660576         103.7397544556      A2        A2 (4)
  229   205           3.8168460211         103.8616604590      B2        B2 (3)
  230    84           3.8605683801         105.0514063323      A1        A1 (1)
  231   206           3.8736221698         105.4066180092      B2        B2 (3)
  232    85           4.0858046212         111.1803960438      A1        A1 (1)
  233   147           4.1525417945         112.9964068558      B1        B1 (2)
  234    86           4.1529331233         113.0070554529      A1        A1 (1)
  235   207           4.1580635850         113.1466624135      B2        B2 (3)
  236   148           4.2680795372         116.1403486687      B1        B1 (2)
  237   243           4.3087726030         117.2476632826      A2        A2 (4)
  238    87           4.3103669983         117.2910489847      A1        A1 (1)
  239   208           4.4502565134         121.0976362148      B2        B2 (3)
  240    88           4.5165954973         122.9028117399      A1        A1 (1)
  241    89           4.8074428461         130.8171704578      A1        A1 (1)
  242   209           4.8511665026         132.0069516394      B2        B2 (3)
  243   149           4.9423458845         134.4880687598      B1        B1 (2)


  VSCF finished.

 @CHECKOUT-I, Total execution time (CPU/WALL):      363.04/      59.25 seconds.
--executable xvscf finished with status     0 in       59.27 seconds (walltime).
 --invoking executable--
/opt/cfour/2.1/bin/xvtran
 @GETMEM-I,  Allocated   30517 MB of main memory.
  Full RHF integral transformation
  The following  17 MOs will be dropped:
    1  2  3  4  5  6  7  8  9 19 20 21 22 29 30 31 32
  There are 226 active molecular orbitals.
  Transformation of IIII integrals :
  1 pass through the AO integral file was required.
    11406847 AO integrals were read.
     7976542 MO integrals were written to HF2.
  Transformation of IIJJ integrals :
  1 pass through the AO integral file was required.
    22306274 AO integrals were read.
    16716336 MO integrals were written to HF2.
  Transformation of IJIJ integrals :
  1 pass through the AO integral file was required.
    43243476 AO integrals were read.
    32321376 MO integrals were written to HF2.
  Transformation of IJKL integrals :
  1 pass through the AO integral file was required.
    32303212 AO integrals were read.
    25589760 MO integrals were written to HF2.
  Summary of active molecular orbitals: 
------------------------------------------------------------------------

  Index      Eigenvalue    Symmetry    Index      Eigenvalue    Symmetry
------------------------------------------------------------------------
     1        -1.5239359        1       114         0.7229589        2
     2        -1.4879057        1       115         0.7594017        2
     3        -0.8486650        1       116         0.8892036        2
     4        -0.8004233        1       117         0.9720323        2
     5        -0.7118954        1       118         1.0546678        2
     6        -0.6482113        1       119         1.0910875        2
     7        -0.6254504        1       120         1.1689931        2
     8        -0.6012588        1       121         1.2324004        2
     9        -0.3561072        1       122         1.2774687        2
    10        -1.5238912        2       123         1.2789407        2
    11        -0.8249387        2       124         1.3296501        2
    12        -0.6571347        2       125         1.3944480        2
    13        -0.6484209        2       126         1.4689069        2
    14        -0.5978596        2       127         1.6609567        2
    15        -0.4356064        2       128         1.7087239        2
    16        -1.4877877        3       129         1.7760360        2
    17        -0.7982486        3       130         1.7982933        2
    18        -0.6604029        3       131         1.8547087        2
    19        -0.6266161        3       132         1.9121893        2
    20        -0.6109826        3       133         2.0813755        2
    21        -0.3334446        3       134         2.3125884        2
    22        -0.6639215        4       135         2.6266388        2
    23        -0.6168824        4       136         2.7633911        2
    24        -0.4323572        4       137         2.9342643        2
    25         0.0001302        1       138         3.2891334        2
    26         0.0257369        1       139         3.5841333        2
    27         0.0353026        1       140         3.6705975        2
    28         0.0841626        1       141         3.7229157        2
    29         0.0878389        1       142         3.7874701        2
    30         0.0970503        1       143         4.1525418        2
    31         0.1364118        1       144         4.2680795        2
    32         0.1443416        1       145         4.9423459        2
    33         0.1479689        1       146         0.0298805        3
    34         0.1627045        1       147         0.0796796        3
    35         0.1788971        1       148         0.1098412        3
    36         0.1989063        1       149         0.1227186        3
    37         0.2300746        1       150         0.1431419        3
    38         0.2648707        1       151         0.1536392        3
    39         0.2680684        1       152         0.1639456        3
    40         0.3220627        1       153         0.2210263        3
[...]
         7                D              0.00426637
         8                D              0.00426637
         7                D              0.00966840
         8                D              0.00966840
         7                D              0.00177392
         8                D              0.00177392
         7                D              0.00419111
         8                D              0.00419111
         7                D              0.00461354
         8                D              0.00461354
         7                D              0.00583388
         8                D              0.00583388
         7                D              0.00745890
         8                D              0.00745890
         7                D              0.00364538
         8                D              0.00364538
         7                D              0.00246971
         8                D              0.00246971
         7                D              0.00552333
         8                D              0.00552333
         9                S              2.00289220
        10                S              2.00289220
         9                S              1.84505527
        10                S              1.84505527
         9                S             -0.00629515
        10                S             -0.00629515
         9                S              0.08984400
        10                S              0.08984400
         9                P              1.53755152
        10                P              1.53755152
         9                P             -0.21993216
        10                P             -0.21993216
         9                P             -0.01232905
        10                P             -0.01232905
         9                P              1.52123456
        10                P              1.52123456
         9                P              0.01742677
        10                P              0.01742677
         9                P              0.01826677
        10                P              0.01826677
         9                P              1.47649956
        10                P              1.47649956
         9                P              0.01515086
        10                P              0.01515086
         9                P              0.01953299
        10                P              0.01953299
         9                D              0.00707397
        10                D              0.00707397
         9                D              0.00194606
        10                D              0.00194606
         9                D              0.00622376
        10                D              0.00622376
         9                D              0.01311987
        10                D              0.01311987
         9                D              0.00648142
        10                D              0.00648142
         9                D              0.01330232
        10                D              0.01330232
         9                D              0.00177597
        10                D              0.00177597
         9                D              0.00054230
        10                D              0.00054230
         9                D              0.00001096
        10                D              0.00001096
         9                D             -0.00001579
        10                D             -0.00001579
         9                D              0.00177225
        10                D              0.00177225
         9                D              0.00040573
        10                D              0.00040573
 -------------------------------------------------------
  Population analysis by atoms (atomic charges).
 -------------------------------------------------------
     Z-matrix
      Center          Function          Population
 -------------------------------------------------------
         1                              25.70095984
         3                               5.55388357
         4                               5.55388357
         5                               5.76018694
         6                               5.76018694
         7                               8.47791262
         8                               8.47791262
         9                               8.35753696
        10                               8.35753696
 -------------------------------------------------------

  Mulliken population analysis of CCSD(T) density.
   Total density is analyzed.

  Population analysis by orbitals.
 -------------------------------------------------------
     Z-matrix
      Center          Function          Population
 -------------------------------------------------------
         1                S              1.99995052
         1                S              1.99913726
         1                S              2.03630532
         1                S              0.65856167
         1                S              0.01710055
         1                S              0.15667529
         1                S             -0.01968357
         1                P              2.00001452
         1                P              1.99158023
         1                P              0.71378390
         1                P             -0.84637152
         1                P              0.21602609
         1                P              0.00087708
         1                P              1.99991507
         1                P              2.01996851
         1                P              0.34770416
         1                P             -0.00795469
         1                P              0.07309744
         1                P             -0.00242958
         1                P              1.99998008
         1                P              2.00078957
         1                P              0.18424368
         1                P             -0.18295323
         1                P              0.07981298
         1                P             -0.00260334
         1                D              0.48422594
         1                D              0.02133799
         1                D             -0.05664568
         1                D             -0.00567214
         1                D              1.44921440
         1                D              0.03508530
         1                D             -0.04428262
         1                D             -0.05350800
         1                D              1.53443350
         1                D              0.03098544
         1                D             -0.03519423
         1                D             -0.02618715
         1                D              0.73580762
         1                D              0.02182698
         1                D             -0.05120343
         1                D              0.00145092
         1                D              1.46436209
         1                D              0.02885382
         1                D             -0.05789145
         1                D             -0.00761448
         1                D              0.95187913
         1                D              0.01968153
         1                D              0.00061984
         1                D             -0.00265522
         1                F              0.00168988
         1                F              0.00766807
         1                F              0.00258146
         1                F              0.01257624
         1                F              0.00238968
         1                F              0.01219455
         1                F              0.00280454
         1                F              0.01117221
         1                F              0.00319652
         1                F              0.00656443
         1                F              0.00286620
         1                F              0.00604196
         1                F              0.00139162
         1                F              0.00712061
         1                F              0.00330115
         1                F              0.00681690
         1                F              0.00285918
         1                F              0.01098979
         1                F              0.00139760
         1                F              0.00340245
         3                S              2.00709926
         4                S              2.00709926
         3                S              1.58116894
         4                S              1.58116894
         3                S             -0.11786745
         4                S             -0.11786745
         3                S             -0.13602028
         4                S             -0.13602028
         3                P              0.74155889
         4                P              0.74155889
         3                P             -0.12023657
         4                P             -0.12023657
         3                P              0.00630631
         4                P              0.00630631
         3                P              1.03568612
         4                P              1.03568612
         3                P             -0.27583523
         4                P             -0.27583523
         3                P             -0.00319032
         4                P             -0.00319032
         3                P              0.92493200
         4                P              0.92493200
         3                P             -0.16643146
         4                P             -0.16643146
         3                P              0.00007567
         4                P              0.00007567
         3                D              0.00883158
         4                D              0.00883158
         3                D             -0.00271288
         4                D             -0.00271288
         3                D              0.04124054
         4                D              0.04124054
         3                D              0.01320120
         4                D              0.01320120
         3                D              0.01761169
         4                D              0.01761169
         3                D              0.00504154
         4                D              0.00504154
         3                D              0.03429629
         4                D              0.03429629
         3                D              0.00396463
         4                D              0.00396463
         3                D              0.03795873
         4                D              0.03795873
         3                D              0.00384010
         4                D              0.00384010
         3                D              0.02350432
         4                D              0.02350432
         3                D              0.00773116
         4                D              0.00773116
         5                S              2.00733541
         6                S              2.00733541
         5                S              1.59736425
         6                S              1.59736425
         5                S             -0.10590683
         6                S             -0.10590683
         5                S             -0.03616264
         6                S             -0.03616264
         5                P              1.15771847
         6                P              1.15771847
         5                P             -0.32747910
         6                P             -0.32747910
         5                P             -0.01188349
         6                P             -0.01188349
         5                P              0.76159298
         6                P              0.76159298
         5                P             -0.12741171
         6                P             -0.12741171
         5                P              0.03845601
         6                P              0.03845601
         5                P              0.75613229
         6                P              0.75613229
         5                P             -0.11741507
         6                P             -0.11741507
         5                P              0.02827529
         6                P              0.02827529
         5                D              0.02567521
         6                D              0.02567521
         5                D             -0.01159362
         6                D             -0.01159362
         5                D              0.05604480
         6                D              0.05604480
         5                D              0.02224475
         6                D              0.02224475
         5                D              0.05162106
         6                D              0.05162106
         5                D              0.01541952
         6                D              0.01541952
         5                D              0.00816667
         6                D              0.00816667
         5                D             -0.00242969
         6                D             -0.00242969
         5                D              0.00399241
         6                D              0.00399241
         5                D              0.00359799
         6                D              0.00359799
         5                D              0.00872305
         6                D              0.00872305
         5                D              0.00082429
         6                D              0.00082429
         7                S              2.00306355
         8                S              2.00306355
         7                S              1.85440307
         8                S              1.85440307
         7                S             -0.04088798
         8                S             -0.04088798
         7                S              0.13399357
         8                S              0.13399357
         7                P              1.46076792
         8                P              1.46076792
         7                P             -0.01119111
         8                P             -0.01119111
         7                P              0.03692097
         8                P              0.03692097
         7                P              1.50374767
         8                P              1.50374767
         7                P             -0.15328592
         8                P             -0.15328592
         7                P              0.00399310
         8                P              0.00399310
         7                P              1.50289379
         8                P              1.50289379
         7                P             -0.07483543
         8                P             -0.07483543
         7                P              0.02225192
         8                P              0.02225192
         7                D              0.00400754
         8                D              0.00400754
         7                D              0.00158532
         8                D              0.00158532
         7                D              0.00769114
         8                D              0.00769114
         7                D              0.01029815
         8                D              0.01029815
         7                D              0.00530131
         8                D              0.00530131
         7                D              0.00582740
         8                D              0.00582740
         7                D              0.00688561
         8                D              0.00688561
         7                D              0.00614742
         8                D              0.00614742
         7                D              0.01070285
         8                D              0.01070285
         7                D              0.00445549
         8                D              0.00445549
         7                D              0.00486319
         8                D              0.00486319
         7                D              0.00632867
         8                D              0.00632867
         9                S              2.00305219
        10                S              2.00305219
         9                S              1.86028564
        10                S              1.86028564
         9                S             -0.05005806
        10                S             -0.05005806
         9                S              0.10967096
        10                S              0.10967096
         9                P              1.52131750
        10                P              1.52131750
         9                P             -0.22157183
        10                P             -0.22157183
         9                P             -0.00989665
        10                P             -0.00989665
         9                P              1.48674796
        10                P              1.48674796
         9                P             -0.01941037
        10                P             -0.01941037
         9                P              0.01760143
        10                P              0.01760143
         9                P              1.44957092
        10                P              1.44957092
         9                P             -0.02314178
        10                P             -0.02314178
         9                P              0.02006307
        10                P              0.02006307
         9                D              0.00907696
        10                D              0.00907696
         9                D              0.00215051
        10                D              0.00215051
         9                D              0.00966477
        10                D              0.00966477
         9                D              0.01320266
        10                D              0.01320266
         9                D              0.00977097
        10                D              0.00977097
         9                D              0.01342120
        10                D              0.01342120
         9                D              0.00407317
        10                D              0.00407317
         9                D              0.00165482
        10                D              0.00165482
         9                D              0.00359360
        10                D              0.00359360
         9                D              0.00218793
        10                D              0.00218793
         9                D              0.00405876
        10                D              0.00405876
         9                D              0.00159583
        10                D              0.00159583
 -------------------------------------------------------
  Population analysis by atoms (atomic charges).
 -------------------------------------------------------
     Z-matrix
      Center          Function          Population
 -------------------------------------------------------
         1                              25.98146316
         3                               5.67175478
         4                               5.67175478
         5                               5.80290230
         6                               5.80290230
         7                               8.31592919
         8                               8.31592919
         9                               8.21868215
        10                               8.21868215
 -------------------------------------------------------
 @CHECKOUT-I, Total execution time (CPU/WALL):        4.89/       0.24 seconds.
--executable xprops finished with status     0 in        0.26 seconds (walltime).
  The final electronic energy is     -1715.054722002668086 a.u. 
  This computation required                         2912.98 seconds (walltime).
Attempting to clean /scratch/jearias... save is False. TIME: Fri 29 Aug 2025 01:23:13 PM PDT
Total of 2914 seconds elapsed for this process.
