 --invoking executable--
/opt/cfour/2.1/bin/xjoda


   *************************************************************************
         <<<     CCCCCC     CCCCCC   |||     CCCCCC     CCCCCC   >>>
       <<<      CCC        CCC       |||    CCC        CCC         >>>
      <<<      CCC        CCC        |||   CCC        CCC            >>>
    <<<        CCC        CCC        |||   CCC        CCC              >>>
      <<<      CCC        CCC        |||   CCC        CCC            >>>
       <<<      CCC        CCC       |||    CCC        CCC         >>>
         <<<     CCCCCC     CCCCCC   |||     CCCCCC     CCCCCC   >>>
   *************************************************************************

     ****************************************************************
     * CFOUR Coupled-Cluster techniques for Computational Chemistry *
     ****************************************************************


   Department of Chemistry                Institut fuer Physikalische Chemie
   University of Florida                  Universitaet Mainz
   Gainesville, FL 32611, USA             D-55099 Mainz, Germany

   Department of Chemistry                Fakultaet fuer Chemie und Biowiss.
   Johns Hopkins University               Karlsruher Institut fuer Technologie
   Baltimore, MD 21218, USA               D-76131 Karlsruhe, Germany

   Department of Chemistry                Department of Physical Chemistry
   Southern Methodist University          Eotvos Lorand University
   Dallas, TX 75275, USA                  H-1053 Budapest, Hungary


                       Version 2.1

                     node005                                           
                     Fri 29 Aug 2025 04:20:08 PM PDT                   
                     integer*8 version is running

********************************************************************************
*                          Input from ZMAT file                                *
********************************************************************************
Optimization on FeCO4 (C2v), S0                                                 
FE                                                                              
X 1 RDX                                                                         
C 1 RC1* 2 AC1*                                                                 
C 1 RC1* 2 AC1* 3 D180                                                          
C 1 RC2* 2 AC2* 4 D90                                                           
C 1 RC2* 2 AC2* 3 D90                                                           
O 1 RO1* 2 AO1* 4 D180                                                          
O 1 RO1* 2 AO1* 3 D180                                                          
O 1 RO2* 2 AO2* 6 D180                                                          
O 1 RO2* 2 AO2* 5 D180                                                          
                                                                                
RC1  =        1.790983255565001                                                 
AC1  =       64.233133498766477                                                 
RC2  =        1.836322430867198                                                 
AC2  =       92.332092735120654                                                 
RO1  =        2.952325893979423                                                 
AO1  =       61.431716798503288                                                 
RO2  =        2.993644997708591                                                 
AO2  =       92.311675171948210                                                 
RDX  =        1.25                                                              
D90  =       90.00                                                              
D180 =      180.00                                                              
                                                                                
*ACES2(CALC = CCSD(T)                                                           
      BASIS = SPECIAL                                                           
FROZEN_CORE = ON                                                                
 OCCUPATION = 18-10-10-3                                                        
   SCF_CONV = 9                                                                 
    CC_CONV = 7                                                                 
 LINEQ_CONV = 7                                                                 
   SCF_MAXCYC = 500                                                             
    CC_MAXCYC = 500                                                             
 LINEQ_MAXCYC = 500                                                             
       MEMORY = 32                                                              
     MEM_UNIT = GB)                                                             
                                                                                
Fe:aug-cc-pVDZ                                                                  
C:aug-cc-pVDZ                                                                   
C:aug-cc-pVDZ                                                                   
C:aug-cc-pVDZ                                                                   
C:aug-cc-pVDZ                                                                   
O:aug-cc-pVDZ                                                                   
O:aug-cc-pVDZ                                                                   
O:aug-cc-pVDZ                                                                   
O:aug-cc-pVDZ                                                                   
                                                                                
********************************************************************************
    -------------------------------------------------------------------
                    CFOUR Control Parameters 
    -------------------------------------------------------------------
        External           Internal           Value            Units
          Name               Name
    -------------------------------------------------------------------
       ABCDTYPE             IABCDT         STANDARD    [  0]    ***   
       ANHARMONIC           IANHAR         OFF         [  0]    ***   
       ANH_ALGORIT          IANALG         STANDARD    [  0]    ***   
       ANH_DERIVAT          IANDER         SECOND      [  1]    ***   
       ANH_MODE             ANHMOD         VIBRATION   [  0]    ***   
       ANH_STEPSIZ          ICUBST             50000          x 10-6  
       ANH_SYMMETR          IANHSM         ABELIAN     [  0]    ***   
       AO_LADDERS           IAOLAD         SINGLEPASS  [  1]    ***   
       AV_SCF               IAVSCF         OFF         [  0]    ***   
       BASIS                IBASIS         SPECIAL     [  0]    ***   
       BOTHVECTORS          BOTHVC         OFF         [  0]    ***   
       BOX_POTENT           IPIAB          OFF         [  0]    ***   
       BREIT                IBREIT         OFF         [  0]    ***   
       BRUCK_CONV           IBRTOL          10D-  4             ***   
       BRUECKNER            IBRKNR         OFF         [  0]    ***   
       BUFFERSIZE           IBUFFS              4096            ***   
       CACHE_RECS           ICHREC             10               ***   
       CALCLEVEL            ICLLVL         CCSD(T)     [ 22]    ***   
       CCORBOPT             ICCORB         OFF         [  0]  x 0.01  
       CC_CONV              ICCCNV          10D-  7             ***   
       CC_EXPORDER          ICCEOR              5               ***   
       CC_EXTRAPOL          ICCEXT         DIIS        [  1]    ***   
       CC_GUESS             ICCGES         MP2         [  0]    ***   
       CC_MAXCYC            ICCCYC            500              cycles 
       CC_PROGRAM           ICCPRO         VCC         [  0]    ***   
       CHARGE               ICHRGE              0               ***   
       CHOLESKY             ICHOLE         OFF         [  0]    ***   
       CIS_CONV             ICISTL              5               ***   
       COMM_SIZE            IPSIZE            ***               ***   
       CONSTANT             ICONST         OLD         [  1]    ***   
       CONTINUUM            ICONTU         NONE        [  0]    ***   
       CONTRACTION          ICNTYP         GENERAL     [  1]    ***   
       COORDINATES          ICOORD         INTERNAL    [  0]    ***   
       CPHF_CONVER          ICPHFT          10D- 16             ***   
       CPHF_MAXCYC          ICPHFC             64              cycles 
       CUBIC                ICUBIC         OFF         [  0]    ***   
       CURVILINEAR          ICURVY         OFF         [  0]    ***   
       DBOC                 IDBOC          OFF         [  0]    ***   
       DCT                  IDCT           OFF         [  0]    ***   
       DERIV_LEV            IDRLVL         FIRST       [  1]    ***   
       DEVMEM_SIZE          IDVMEM         *********           MByte  
       DIAG_MRCC            IEOMST          10D-  0             ***   
       DIFF_TYPE            IDIFTY         RELAXED     [  0]    ***   
       DIRECT               IDIRCT         OFF         [  0]    ***   
       DROPMO               IDRPMO      NONE         
       ECP                  IECP           OFF         [  0]    ***   
       EIGENVECTOR          IVEC                1               ***   
       EL_ANHARM            IELANH         OFF         [  0]    ***   
       EOMFOLLOW            IEOMSR         ENERGY      [  0]    ***   
       EOMIP                IEOMIP         OFF         [  0]    ***   
       EOMLEVEL             HBARFM         SAME        [  0]    ***   
       EOM_MRCC             IMRCCE         NEW         [  1]    ***   
       EOM_NONIT            EOMNON         OFF         [  0]    ***   
       EOM_NSING            IEOMSI          10D-  0             ***   
       EOM_NSTATES          IMRCCD         DAVIDSON    [  0]    ***   
       EOM_NTRIP            IEOMTR          10D-  0             ***   
       EOM_ORDER            IEXORD         ENERGY      [  0]    ***   
       EOM_PROPSTA          IEOMST              0               ***   
       ESTATE_CONV          IEXTOL          10D-  5             ***   
       ESTATE_DIAG          IEXDIG         ITERATIVE   [  0]    ***   
       ESTATE_LOCK          IESLOC         ON          [  1]    ***   
       ESTATE_MAXC          IEXMXC             40               ***   
       ESTATE_PROP          IEXPRP         OFF         [  0]    ***   
       EVAL_HESS            IRECAL              0            # of cyc.
       EXCITATION           IEXCIT              0               ***   
       EXCITE               IEXCIT         NONE        [  0]    ***   
       EXTERN_POT           IEXPOT         OFF         [  0]    ***   
       FCGRADNEW            IFCGNW         ON          [  1]    ***   
       FC_FIELD             IFINFC              0             x 10-6  
       FD_CALTYPE           IFDCAL         GRADONLY    [  0]    ***   
       FD_PROJECT           IFDPRJ         OFF         [  1]    ***   
       FD_STEPSIZE          IDISFD              0            10-4 bohr
       FD_USEGROUP          IFDGRP         FULL        [  0]    ***   
       FILE_RECSIZ          IFLREC              4096           words  
       FINITE_PERT          IFIPER              0             x 10-6  
       FIXGEOM              IFIXGM         OFF         [  0]    ***   
       FOCK                 IFOCK          AO          [  1]    ***   
       FREQ_ALGORI          IVIALG         STANDARD    [  0]    ***   
       FROZEN_CORE          IFROCO         ON          [  1]    ***   
       GAMMA_ABCD           IGABCD         STORE       [  0]    ***   
       GAMMA_ABCI           IGABCI         STORE       [  0]    ***   
       GENBAS_1             IGNBS1              0               ***   
       GENBAS_2             IGNBS2              0               ***   
       GENBAS_3             IGNBS3              0               ***   
       GENBAS_4             IGNBS4              0               ***   
       GEO_CONV             ICONTL              5              H/bohr 
       GEO_MAXCYC           IOPTCY             50               ***   
       GEO_MAXSTEP          IMXSTP            300            millibohr
       GEO_METHOD           INR            NR          [  0]    ***   
       GIAO                 IGIAO          OFF         [  1]    ***   
       GIMIC                IGIMIC         OFF         [  0]    ***   
       GRID                 IGRID          OFF         [  0]    ***   
       GRID_ALGO            IGALGO         SERIAL      [  0]    ***   
       GUESS                IGUESS         MOREAD      [  0]    ***   
       HBAR                 IHBAR          OFF         [  0]    ***   
       HESS_TYPE            IHESTP         SCF         [  0]    ***   
       HF2_FILE             IHF2Fl         USE         [  1]    ***   
       HFSTABILITY          ISTABL         OFF         [  0]    ***   
       INCORE               INCORE         OFF         [  0]    ***   
       INPUT_MRCC           IMRCC          ON          [  1]    ***   
       INTEGRALS            INTTYP         VMOL        [  1]    ***   
       JODA_PRINT           IJPRNT              0               ***   
       KEYWORD_OUT          IDMPKW         NO          [  0]    ***   
       LINDEP_TOL           ILINDP              8               ***   
       LINEQ_CONV           IZTACN          10D-  7           cycles  
       LINEQ_EXPOR          ILMAXD              5               ***   
       LINEQ_MAXCY          ILMAXC            500               ***   
       LINEQ_TYPE           ILTYPE         DIIS        [  1]    ***   
       LOCK_ORBOCC          ILOCOC         OFF         [  0]    ***   
       MEMORY_SIZE          IMEMSZ         *********           words  
       MEM_UNIT             IMEMU          GB          [  3]    ***   
       MRCC                 IMRCCC         OFF         [  0]    ***   
       MULTIPLICTY          IMULTP              1               ***   
       NACOUPLING           IVCOUP         OFF         [  0]    ***   
       NEGEVAL              IDIE           ABORT       [  0]    ***   
       NEWNORM              INEWNO         OFF         [  0]    ***   
       NON-HF               INONHF         OFF         [  0]    ***   
       NTOP_TAMP            ITOPT2             15               ***   
       NUC_MODEL            INUCMO         POINT       [  0]    ***   
       OCCUPATION           IOCCU   18, 10, 10,  3,
       OPEN-SHELL           IOPEN          SPIN-ORBITAL[  0]    ***   
       OPTVIB               IOPTVB         OFF         [  0]    ***   
       ORBITALS             IORBTP         STANDARD    [  0]    ***   
       PARALLEL             IPARAL         ON          [  1]    ***   
       PARA_INT             IPINTS         ON          [  1]    ***   
       PARA_PRINT           IPPRIN              0               ***   
       PERT_ORB             IPTORB         CANONICAL   [  1]    ***   
       POINTS               IGRDFD              0               ***   
       PRINT                IPRNT               0               ***   
       PROPS                IPROPS         OFF         [  0]    ***   
       PROP_INTEGR          IINTYP         INTERNAL    [  0]    ***   
       PSI                  IPSI           OFF         [  0]    ***   
       QC_ALG               IQCALG         FLM         [  0]    ***   
       QC_LINALG            IQCLIN         TRIDIAG     [  2]    ***   
       QC_MAXCYC            IQCMAX          10D-100           cycles  
       QC_MAXSCFCY          IQCMSC          10D- 15           cycles  
       QC_RTRUST            IQCRTR          10D-  0           x 10-3  
       QC_SKIPSCF           IQCSKI         OFF         [  0]    ***   
       QC_START             IQCSTA          10D-  1             ***   
       QRHFGUESS            IQGUES         OFF         [  0]    ***   
       QUARTIC              IQUART         OFF         [  0]    ***   
       RAMAN_INT            IRAMIN         OFF         [  0]    ***   
       RAMAN_ORB            IRAMRE         UNRELAXED   [  0]    ***   
       RDO                  IRDOFM         ON          [  1]    ***   
       REDUCE_REPR          REDREP         Ir          [  0]    ***   
       REFERENCE            IREFNC         RHF         [  0]    ***   
       RELATIVIST           IRELAT         OFF         [  0]    ***   
       RELAX_DENS           IRDENS         ON          [  1]    ***   
       RESET_FLAGS          IRESET         OFF         [  0]    ***   
       RESTART_CC           ICCRES         OFF         [  0]    ***   
       ROT_EVEC             ROTVEC              0               ***   
       SAVE_INTS            ISVINT         OFF         [  0]    ***   
       SCALE_ON             ISTCRT              0               ***   
       SCF_CONV             ISCFCV          10D-  9             ***   
       SCF_DAMPING          IDAMP               0             x 10-3  
       SCF_EXPORDE          IRPPOR              6               ***   
       SCF_EXPSTAR          IRPPLS              8               ***   
       SCF_EXTRAPO          IRPP           ON          [  1]    ***   
       SCF_MAXCYC           ISCFCY            500              cycles 
       SCF_NOSTOP           ISCFST         OFF         [  0]    ***   
       SCF_PRINT            ISCFPR              0               ***   
       SCF_PROG             ISCFPR         SCF         [  0]    ***   
       SD_FIELD             IFINSD              0             x 10-6  
       SOPERT               IPERSO         OFF         [  0]    ***   
       SPHERICAL            IDFGHI         ON          [  1]    ***   
       SPINORBIT            ISOCAL         OFF         [  0]    ***   
       SPINROTATIO          ISRCON         OFF         [  0]    ***   
       SPIN_FLIP            ISPFLP         OFF         [  0]    ***   
       SPIN_ORBIT           ISPORB         OFF         [  0]    ***   
       SPIN_SCAL            ISCSMP         OFF         [  0]    ***   
       STEEPSCALE           ISTPSC              1000          x 10-3  
       SUBGROUP             ISUBGP         DEFAULT     [  0]    ***   
       SUBGRPAXIS           ISBXYZ         X           [  0]    ***   
       SYMMETRY             ISYM           ON          [  0]    ***   
       SYM_CHECK            ISYMCK         OVERRIDE    [  1]    ***   
       T3_EXTRAPOL          IT3EXT         OFF         [  0]    ***   
       T4_EXTRAPOL          IT4EXP         OFF         [  0]    ***   
       TAMP_SUM             IEVERY              5               ***   
       TESTSUITE            ITESTS         OFF         [  0]    ***   
       THERMOCH             ITHERM         OFF         [  0]    ***   
       TOL_CHOLESK          ITOLCH          10D-  4             ***   
       TRANGRAD             IRESRM         OFF         [  0]    ***   
       TRANS_INV            ITRAIN         USE         [  0]    ***   
       TREAT_PERT           ITREAT         SIMULTANEOUS[  0]    ***   
       TRIP_ALGORI          ITRALG         NORMAL      [  0]    ***   
       UIJ_THRESHO          IUIJTH              1               ***   
       UNITS                IUNITS         ANGSTROM    [  0]    ***   
       UNOS                 IUNOS          OFF         [  0]    ***   
       UPDATE_HESS          IHUPDT         ON          [  1]    ***   
       VIBPHASE             ISETPH         STANDARD    [  0]    ***   
       VIBRATION            IVIB           NO          [  0]    ***   
       VIB_ALGORIT          IGEALG         STANDARD    [  0]    ***   
       VNATORB              IVNORB         OFF         [  0]    ***   
       VTRAN                IVTRAN         FULL/PARTIAL[  0]    ***   
       XFIELD               IXEFLD              0             x 10-6  
       XFORM_TOL            IXFTOL          10D- 11             ***   
       YFIELD               IYEFLD              0             x 10-6  
       ZFIELD               IZEFLD              0             x 10-6  
       ZSCALE_EXP           IZEXPS         OFF         [  0]    ***   
    -------------------------------------------------------------------
  10 entries found in Z-matrix 
   Job Title : Optimization on FeCO4 (C2v), S0                                                 
   There are 11 unique internal coordinates.
   Of these,  8 will be optimized.
   User supplied Z-matrix: 
--------------------------------------------------------------------------------
       SYMBOL    BOND      LENGTH    ANGLE     ANGLE     DIHED     ANGLE
                  TO      (ANGST)    WRT      (DEG)      WRT      (DEG)
--------------------------------------------------------------------------------
        FE   
        X          1         RDX  
        C          1         RC1        2        AC1  
        C          1         RC1        2        AC1        3        D180 
        C          1         RC2        2        AC2        4        D90  
        C          1         RC2        2        AC2        3        D90  
        O          1         RO1        2        AO1        4        D180 
        O          1         RO1        2        AO1        3        D180 
        O          1         RO2        2        AO2        6        D180 
        O          1         RO2        2        AO2        5        D180 
                  *Initial values for internal coordinates* 
                      Name             Value
                        RDX             1.2500000000
                        RC1             1.7909832556
                        AC1            64.2331334988
                        D180          180.0000000000
                        RC2             1.8363224309
                        AC2            92.3320927351
                        D90            90.0000000000
                        RO1             2.9523258940
                        AO1            61.4317167985
                        RO2             2.9936449977
                        AO2            92.3116751719
--------------------------------------------------------------------------------
  filter applied 
  filter applied 
   Rotational constants (in cm-1): 
          0.0261552409             0.0395939186             0.0501347672
   Rotational constants (in MHz): 
        784.1145064881          1186.9959829144          1503.0027193451
********************************************************************************
   The full molecular point group is C2v .
   The largest Abelian subgroup of the full molecular point group is C2v .
   The computational point group is C2v .
********************************************************************************
--------------------------------------------------------------------------------
   Analysis of internal coordinates specified by Z-matrix 
--------------------------------------------------------------------------------
   *The nuclear repulsion energy is  582.623866203346097 a.u.
   *There are   8 degrees of freedom within the tot. symm. molecular subspace.
   *Z-matrix requests optimization of   8 coordinates.
   *The optimization is unconstrained and your Z-matrix is great.
--------------------------------------------------------------------------------


 ----------------------------------------------------------------
         Coordinates used in calculation (QCOMP) 
 ----------------------------------------------------------------
 Z-matrix   Atomic            Coordinates (in bohr)
  Symbol    Number           X              Y              Z
 ----------------------------------------------------------------
     FE       26         0.00000000     0.00000000    -0.65491127
     X         0         0.00000000     0.00000000     1.70724688
     C         6        -0.00000000    -3.04795190     0.81635235
     C         6         0.00000000     3.04795190     0.81635235
     C         6         3.46727308    -0.00000000    -0.79611663
     C         6        -3.46727308     0.00000000    -0.79611663
     O         8        -0.00000000    -4.89982239     2.01304104
     O         8         0.00000000     4.89982239     2.01304104
     O         8         5.65256652    -0.00000000    -0.88309549
     O         8        -5.65256652     0.00000000    -0.88309549
 ----------------------------------------------------------------

   Interatomic distance matrix (Angstroms) 

                 FE            X             C             C             C    
                [ 1]        [ 2]        [ 3]        [ 4]        [ 5]
  FE   [ 1]     0.00000
  X    [ 2]     1.25000     0.00000
  C    [ 3]     1.79098     1.68039     0.00000
  C    [ 4]     1.79098     1.68039     3.22581     0.00000
  C    [ 5]     1.83632     2.26305     2.58767     2.58767     0.00000
  C    [ 6]     1.83632     2.26305     2.58767     2.58767     3.66960
  O    [ 7]     2.95233     2.59792     1.16677     4.25319     3.50704
  O    [ 8]     2.95233     2.59792     4.25319     1.16677     3.50704
  O    [ 9]     2.99365     3.29033     3.51533     3.51533     1.15732
  O    [10]     2.99365     3.29033     3.51533     3.51533     4.82623

                 C             O             O             O             O    
                [ 6]        [ 7]        [ 8]        [ 9]        [10]
  C    [ 6]     0.00000
  O    [ 7]     3.50704     0.00000
  O    [ 8]     3.50704     5.18575     0.00000
  O    [ 9]     4.82623     4.24489     4.24489     0.00000
  O    [10]     1.15732     4.24489     4.24489     5.98242     0.00000
 rotcon2
   Rotational constants (in cm-1): 
          0.0501347672             0.0395939186             0.0261552409
   Rotational constants (in MHz): 
       1503.0027193451          1186.9959829144           784.1145064881
  ECPDATA file not present.   Using default ECPDATA. 
  There are  17 frozen-core orbitals.
  There are  243 basis functions.
 @CHECKOUT-I, Total execution time (CPU/WALL):        2.17/       0.59 seconds.
--executable xjoda finished with status     0 in        0.62 seconds (walltime).
 --invoking executable--
/opt/cfour/2.1/bin/xvmol
 SERIAL VERSION OF MOLECULE STARTED
********************************************************************************
                    INPUT FROM MOL FILE
********************************************************************************
INTGRL        1    0    1    0    0    0    0    0    0                         
         *** CFOUR Program System (Release V0.1) ***                            
Optimization on FeCO4 (C2v), S0                                                 
    5    2 X  Y       0.10E-08              0    0                              
   9999.00      3.00                                                            
         26.00000000    1    4    1    1    1    1                              
FE#1   0.000000000000000   0.000000000000000  -0.654911274035491                
   21    7                                                                      
   4316265.0000000000        8.0488029999999998E-006  -4.1559539999999997E-006  
   646342.40000000002        6.2583059999999998E-005  -3.2314010000000003E-005  
   147089.70000000001        3.2902389999999999E-004  -1.6995250000000000E-004  
   41661.519999999997        1.3873550000000001E-003  -7.1713690000000004E-004  
   13590.770000000000        5.0232560000000002E-003  -2.6036250000000000E-003  
   4905.7500000000000        1.6101399999999998E-002  -8.3991090000000001E-003  
   1912.7460000000001        4.5900339999999998E-002  -2.4341089999999999E-002  
   792.60429999999997       0.11361540000000001       -6.2519480000000002E-002  
   344.80650000000003       0.22838690000000000      -0.13659289999999999       
   155.89990000000000       0.32211590000000001      -0.23127070000000000       
   72.230909999999994       0.23836610000000000      -0.23837340000000001       
   32.725059999999999        7.4046669999999995E-002   3.1238370000000001E-002  
   15.667619999999999        9.2141970000000004E-002  0.50868179999999996      -
   7.5034830000000001        9.3397900000000006E-002  0.49876949999999998      -
   3.3122229999999999        1.5739650000000001E-002   9.0335520000000002E-002  
   1.5584709999999999       -4.1866819999999998E-004  -6.0053370000000003E-003  
  0.68391400000000002        5.3763179999999999E-005   2.3124539999999999E-004  
  0.14675700000000000       -3.8166539999999997E-005  -5.6436799999999999E-004  
   7.0583000000000007E-002   4.3196030000000000E-005   4.9922599999999997E-004  
   3.1448999999999998E-002  -3.4010190000000000E-006  -1.0152930000000000E-004  
   1.4010000000000000E-002   0.0000000000000000        0.0000000000000000       
   17    6                                                                      
   17745.689999999999        4.1000000000000000E-005  -1.5000000000000000E-005  
   4200.7209999999995        3.6900000000000002E-004  -1.2999999999999999E-004  
   1364.4290000000001        2.1289999999999998E-003  -7.5100000000000004E-004  
   522.08060000000000        9.3690000000000006E-003  -3.3289999999999999E-003  
   221.45949999999999        3.3097000000000001E-002  -1.1912000000000001E-002  
   100.90960000000000        9.4431000000000001E-002  -3.4932999999999999E-002  
   48.401150000000001       0.20807700000000001       -7.9989000000000005E-002  
   23.985360000000000       0.33233299999999999      -0.13463600000000001       
   12.182499999999999       0.33298699999999998      -0.13859800000000000       
   6.2422979999999999       0.15684300000000001        3.0277999999999999E-002  
   3.1109439999999999        2.1548999999999999E-002  0.33321600000000001      -
   1.5099579999999999       -2.0950000000000001E-003  0.45615299999999998      -
  0.71084499999999995       -1.7390000000000001E-003  0.28505100000000000      -
  0.27318999999999999       -2.9999999999999997E-004   4.6143999999999998E-002  
  0.10423300000000001        2.9000000000000000E-005  -3.2490000000000002E-003  
   3.8290999999999999E-002  -1.1000000000000000E-005   1.3569999999999999E-003  
   1.4069999999999999E-002   0.0000000000000000        0.0000000000000000       
    9    4                                                                      
   113.34399999999999        3.5300000000000002E-003  -3.8899999999999998E-003  
   33.641399999999997        2.5784000000000001E-002  -2.8441999999999999E-002  
   12.331000000000000        9.9118999999999999E-002 -0.11242900000000000       
   4.9947800000000004       0.23907300000000001      -0.27425699999999997       
   2.0728000000000000       0.35719899999999999      -0.31554599999999999       
  0.83075299999999996       0.36218800000000001        5.7109000000000000E-002  
  0.30917800000000001       0.23646100000000000       0.56360399999999999       
  0.10013000000000000        6.0117999999999998E-002  0.38463700000000001       
   3.2430000000000000E-002   0.0000000000000000        0.0000000000000000       
    3    2                                                                      
   3.2242999999999999       0.42224899999999999        0.0000000000000000       
  0.77580000000000005       0.77146800000000004        0.0000000000000000       
  0.27489999999999998        0.0000000000000000        1.0000000000000000       
          6.00000000    1    3    1    1    1                                   
C #2  -0.000000000000001  -3.047951896933419   0.816352346563065                
   10    4                                                                      
   6665.0000000000000        6.9200000000000002E-004  -1.4600000000000000E-004  
   1000.0000000000000        5.3290000000000004E-003  -1.1540000000000001E-003  
   228.00000000000000        2.7077000000000000E-002  -5.7250000000000001E-003  
   64.709999999999994       0.10171800000000000       -2.3311999999999999E-002  
   21.059999999999999       0.27473999999999998       -6.3954999999999998E-002  
   7.4950000000000001       0.44856400000000002      -0.14998100000000000       
   2.7970000000000002       0.28507399999999999      -0.12726199999999999       
  0.52149999999999996        1.5204000000000001E-002  0.54452900000000004       
  0.15959999999999999       -3.1909999999999998E-003  0.58049600000000001       
   4.6899999999999997E-002   0.0000000000000000        0.0000000000000000       
    5    3                                                                      
   9.4390000000000001        3.8108999999999997E-002   0.0000000000000000       
   2.0019999999999998       0.20948000000000000        0.0000000000000000       
  0.54559999999999997       0.50855700000000004        0.0000000000000000       
  0.15170000000000000       0.46884199999999998        1.0000000000000000       
   4.0410000000000001E-002   0.0000000000000000        0.0000000000000000       
    2    2                                                                      
  0.55000000000000004        1.0000000000000000        0.0000000000000000       
  0.15100000000000000        0.0000000000000000        1.0000000000000000       
          6.00000000    1    3    1    1    1                                   
C #3   3.467273081991815  -0.000000000000001  -0.796116625996238                
   10    4                                                                      
   6665.0000000000000        6.9200000000000002E-004  -1.4600000000000000E-004  
   1000.0000000000000        5.3290000000000004E-003  -1.1540000000000001E-003  
   228.00000000000000        2.7077000000000000E-002  -5.7250000000000001E-003  
   64.709999999999994       0.10171800000000000       -2.3311999999999999E-002  
   21.059999999999999       0.27473999999999998       -6.3954999999999998E-002  
   7.4950000000000001       0.44856400000000002      -0.14998100000000000       
   2.7970000000000002       0.28507399999999999      -0.12726199999999999       
  0.52149999999999996        1.5204000000000001E-002  0.54452900000000004       
  0.15959999999999999       -3.1909999999999998E-003  0.58049600000000001       
   4.6899999999999997E-002   0.0000000000000000        0.0000000000000000       
    5    3                                                                      
   9.4390000000000001        3.8108999999999997E-002   0.0000000000000000       
   2.0019999999999998       0.20948000000000000        0.0000000000000000       
  0.54559999999999997       0.50855700000000004        0.0000000000000000       
  0.15170000000000000       0.46884199999999998        1.0000000000000000       
   4.0410000000000001E-002   0.0000000000000000        0.0000000000000000       
    2    2                                                                      
  0.55000000000000004        1.0000000000000000        0.0000000000000000       
  0.15100000000000000        0.0000000000000000        1.0000000000000000       
          8.00000000    1    3    1    1    1                                   
O #4  -0.000000000000001  -4.899822385262643   2.013041035233696                
   10    4                                                                      
   11720.000000000000        7.1000000000000002E-004  -1.6000000000000001E-004  
   1759.0000000000000        5.4700000000000000E-003  -1.2630000000000000E-003  
   400.80000000000001        2.7837000000000001E-002  -6.2670000000000000E-003  
   113.70000000000000       0.10480000000000000       -2.5715999999999999E-002  
   37.030000000000001       0.28306199999999998       -7.0924000000000001E-002  
   13.270000000000000       0.44871899999999998      -0.16541100000000000       
   5.0250000000000004       0.27095200000000003      -0.11695500000000000       
   1.0129999999999999        1.5458000000000000E-002  0.55736799999999997       
  0.30230000000000001       -2.5850000000000001E-003  0.57275900000000002       
   7.8960000000000002E-002   0.0000000000000000        0.0000000000000000       
    5    3                                                                      
   17.699999999999999        4.3018000000000001E-002   0.0000000000000000       
   3.8540000000000001       0.22891300000000001        0.0000000000000000       
   1.0460000000000000       0.50872799999999996        0.0000000000000000       
  0.27529999999999999       0.46053100000000002        1.0000000000000000       
   6.8559999999999996E-002   0.0000000000000000        0.0000000000000000       
    2    2                                                                      
   1.1850000000000001        1.0000000000000000        0.0000000000000000       
  0.33200000000000002        0.0000000000000000        1.0000000000000000       
          8.00000000    1    3    1    1    1                                   
O #5   5.652566521777896  -0.000000000000001  -0.883095489958316                
   10    4                                                                      
   11720.000000000000        7.1000000000000002E-004  -1.6000000000000001E-004  
   1759.0000000000000        5.4700000000000000E-003  -1.2630000000000000E-003  
   400.80000000000001        2.7837000000000001E-002  -6.2670000000000000E-003  
   113.70000000000000       0.10480000000000000       -2.5715999999999999E-002  
   37.030000000000001       0.28306199999999998       -7.0924000000000001E-002  
   13.270000000000000       0.44871899999999998      -0.16541100000000000       
   5.0250000000000004       0.27095200000000003      -0.11695500000000000       
   1.0129999999999999        1.5458000000000000E-002  0.55736799999999997       
  0.30230000000000001       -2.5850000000000001E-003  0.57275900000000002       
   7.8960000000000002E-002   0.0000000000000000        0.0000000000000000       
    5    3                                                                      
   17.699999999999999        4.3018000000000001E-002   0.0000000000000000       
   3.8540000000000001       0.22891300000000001        0.0000000000000000       
   1.0460000000000000       0.50872799999999996        0.0000000000000000       
  0.27529999999999999       0.46053100000000002        1.0000000000000000       
   6.8559999999999996E-002   0.0000000000000000        0.0000000000000000       
    2    2                                                                      
   1.1850000000000001        1.0000000000000000        0.0000000000000000       
  0.33200000000000002        0.0000000000000000        1.0000000000000000       
FINISH                                                                          

Running with 32 threads/proc


********************************************************************************
 ONE- AND TWO-ELECTRON INTEGRALS OVER SYMMETRY-ADAPTED AOS ARE CALCULATED.

  SPHERICAL HARMONICS ARE USED.
  
  INTEGRALS LESS THAN  0.10E-13 ARE NEGLECTED.

  NUCLEAR REPULSION ENERGY :  582.6238662033 A.U.
  @MOLECU-I, ONE ELECTRON INTEGRALS (CPU/WALL):        2.38/       0.12 SECONDS.
  @TWOEL-I,   11406849 INTEGRALS OF SYMMETRY TYPE  I I I I
  @TWOEL-I,   43243480 INTEGRALS OF SYMMETRY TYPE  I J I J
  @TWOEL-I,   22306272 INTEGRALS OF SYMMETRY TYPE  I I J J
  @TWOEL-I,   32303213 INTEGRALS OF SYMMETRY TYPE  I J K L
  @TWOEL-I, TOTAL NUMBER OF 2-E INTEGRALS  109259814.
  @MOLECU-I, TWO ELECTRON INTEGRALS (CPU/WALL):     1070.94/      47.04 SECONDS.
 @CHECKOUT-I, Total execution time (CPU/WALL):     1073.52/      47.16 seconds.
--executable xvmol finished with status     0 in       47.19 seconds (walltime).
 --invoking executable--
/opt/cfour/2.1/bin/xvmol2ja
 @GETMEM-I,  Allocated   30517 MB of main memory.
 @CHECKOUT-I, Total execution time (CPU/WALL):        0.28/       0.01 seconds.
--executable xvmol2ja finished with status     0 in        0.04 seconds (walltime).
 --invoking executable--
/opt/cfour/2.1/bin/xvscf
  There are  243 functions in the AO basis.

  There are 4 irreducible representations.

       Irrep        # of functions
         1                 89
         2                 60
         3                 60
         4                 34


  Parameters for SCF calculation: 
        SCF reference function:  RHF  
  Maximum number of iterations:  500
     Full symmetry point group: C2v 
     Computational point group: C2v 
        Initial density matrix: MOREAD                 
     SCF convergence tolerance: 10**(- 9)
  DIIS convergence acceleration:  ON
          Latest start for DIIS:   8
                     DIIS order:   6

     Alpha population by irrep:  18   10   10    3
      Beta population by irrep:  18   10   10    3


  Memory information:    2408117 words required.
  Fock matrices are constructed from AO integral file.
 @GETMEM-I,  Allocated      18 MB of main memory.
  Initialization and symmetry analysis required      0.017 seconds.

 total no. of electrons in initial guess :   0.0000000000000000     
  --------------------------------------------------------------------
  Iteration         Total Energy            Largest Density Difference
  --------------------------------------------------------------------
       0           582.623866203346324              0.0000000000D+00
   current occupation vector 
    18 10 10  3
    18 10 10  3
       1         -1283.171613267745442              0.5777000363D+04
   current occupation vector 
    18 10 10  3
    18 10 10  3
       2         -1162.634933620828861              0.5739049944D+04
   current occupation vector 
    18 10 10  3
    18 10 10  3
       3         -1278.237492622590025              0.5718571488D+04
   current occupation vector 
    18 10 10  3
    18 10 10  3
       4         -1162.050081160850596              0.5722043230D+04
   current occupation vector 
    18 10 10  3
    18 10 10  3
       5         -1278.062396447459605              0.5705210531D+04
   current occupation vector 
    18 10 10  3
    18 10 10  3
       6         -1162.008393834620392              0.5705758714D+04
   current occupation vector 
    18 10 10  3
    18 10 10  3
       7         -1278.059722040490442              0.5705109885D+04
   current occupation vector 
    18 10 10  3
    18 10 10  3
       8         -1162.006133624470294              0.5705143616D+04
   current occupation vector 
    18 10 10  3
    18 10 10  3
       9         -1602.297830676303192              0.2701781914D+02
   current occupation vector 
    18 10 10  3
    18 10 10  3
      10         -1640.393456516015021              0.9241108651D+03
   current occupation vector 
    18 10 10  3
    18 10 10  3
      11         -1665.917571970648396              0.4092473656D+03
   current occupation vector 
    18 10 10  3
    18 10 10  3
      12         -1682.125840551755800              0.2693730745D+03
   current occupation vector 
    18 10 10  3
    18 10 10  3
      13         -1694.733249253984695              0.1473185771D+03
   current occupation vector 
    18 10 10  3
    18 10 10  3
      14         -1595.632184068821289              0.8831523893D+03
   current occupation vector 
    18 10 10  3
    18 10 10  3
      15         -1675.454409914879079              0.8438209776D+03
   current occupation vector 
    18 10 10  3
    18 10 10  3
      16         -1606.717147506335323              0.8273908086D+03
   current occupation vector 
    18 10 10  3
    18 10 10  3
      17         -1711.975486948256957              0.8290607571D+03
   current occupation vector 
    18 10 10  3
    18 10 10  3
      18         -1712.946724863814097              0.3006147951D+01
   current occupation vector 
    18 10 10  3
    18 10 10  3
      19         -1713.206291678996195              0.8600100349D+00
   current occupation vector 
    18 10 10  3
    18 10 10  3
      20         -1713.215796942437692              0.2606772160D+00
   current occupation vector 
    18 10 10  3
    18 10 10  3
      21         -1713.221746648097678              0.1964831492D+00
   current occupation vector 
    18 10 10  3
    18 10 10  3
      22         -1713.222762337455833              0.9505185735D-01
   current occupation vector 
    18 10 10  3
    18 10 10  3
      23         -1713.223315929448972              0.2680916040D-01
   current occupation vector 
    18 10 10  3
    18 10 10  3
      24         -1713.223673340559571              0.1290255309D-01
   current occupation vector 
    18 10 10  3
    18 10 10  3
      25         -1713.223960050485175              0.1472797106D-01
   current occupation vector 
    18 10 10  3
    18 10 10  3
      26         -1713.224152936764995              0.1413048370D-01
   current occupation vector 
    18 10 10  3
    18 10 10  3
      27         -1713.224209195939920              0.5684791653D-02
   current occupation vector 
    18 10 10  3
    18 10 10  3
      28         -1713.224254443382733              0.1407318112D-01
   current occupation vector 
    18 10 10  3
    18 10 10  3
      29         -1713.224266105012475              0.9131954796D-02
   current occupation vector 
    18 10 10  3
    18 10 10  3
      30         -1713.224287760725701              0.2143537167D-01
   current occupation vector 
    18 10 10  3
    18 10 10  3
      31         -1713.224294546884494              0.1488274398D-01
   current occupation vector 
    18 10 10  3
    18 10 10  3
      32         -1713.224296257100150              0.5950317786D-02
   current occupation vector 
    18 10 10  3
    18 10 10  3
      33         -1713.224297377088760              0.5004568189D-02
   current occupation vector 
    18 10 10  3
    18 10 10  3
      34         -1713.224298030560249              0.3945690309D-02
   current occupation vector 
    18 10 10  3
    18 10 10  3
      35         -1713.224298457033683              0.2507877620D-02
   current occupation vector 
    18 10 10  3
    18 10 10  3
      36         -1713.224298802418843              0.2398662216D-02
   current occupation vector 
    18 10 10  3
    18 10 10  3
      37         -1713.224298895587026              0.7347347359D-03
   current occupation vector 
    18 10 10  3
    18 10 10  3
      38         -1713.224299044209829              0.1449676058D-02
   current occupation vector 
    18 10 10  3
    18 10 10  3
      39         -1713.224299135434876              0.9815368764D-03
   current occupation vector 
    18 10 10  3
    18 10 10  3
      40         -1713.224299175221631              0.5019919418D-03
   current occupation vector 
    18 10 10  3
    18 10 10  3
      41         -1713.224299206018486              0.5113464136D-03
   current occupation vector 
    18 10 10  3
    18 10 10  3
      42         -1713.224299230641691              0.4081047654D-03
   current occupation vector 
    18 10 10  3
    18 10 10  3
      43         -1713.224299261139322              0.7633570270D-03
   current occupation vector 
    18 10 10  3
    18 10 10  3
      44         -1713.224299269557605              0.3031039784D-03
   current occupation vector 
    18 10 10  3
    18 10 10  3
      45         -1713.224299275598014              0.2933980745D-03
   current occupation vector 
    18 10 10  3
    18 10 10  3
      46         -1713.224299281055437              0.3467824966D-03
   current occupation vector 
    18 10 10  3
    18 10 10  3
      47         -1713.224299283431947              0.1835840867D-03
   current occupation vector 
    18 10 10  3
    18 10 10  3
      48         -1713.224299285362349              0.1507572679D-03
   current occupation vector 
    18 10 10  3
    18 10 10  3
      49         -1713.224299287154054              0.1894617622D-03
   current occupation vector 
    18 10 10  3
    18 10 10  3
      50         -1713.224299288266820              0.1439182230D-03
   current occupation vector 
    18 10 10  3
    18 10 10  3
      51         -1713.224299289096734              0.1546995636D-03
   current occupation vector 
    18 10 10  3
    18 10 10  3
      52         -1713.224299289164946              0.2765385504D-04
   current occupation vector 
    18 10 10  3
    18 10 10  3
      53         -1713.224299289373221              0.4519848674D-04
   current occupation vector 
    18 10 10  3
    18 10 10  3
      54         -1713.224299289587407              0.5756436784D-04
   current occupation vector 
    18 10 10  3
    18 10 10  3
      55         -1713.224299289604687              0.4780010094D-05
   current occupation vector 
    18 10 10  3
    18 10 10  3
      56         -1713.224299289723376              0.3955521204D-04
   current occupation vector 
    18 10 10  3
    18 10 10  3
      57         -1713.224299289773398              0.2220845327D-04
   current occupation vector 
    18 10 10  3
    18 10 10  3
      58         -1713.224299289779765              0.1418433241D-04
   current occupation vector 
    18 10 10  3
    18 10 10  3
      59         -1713.224299289826604              0.1880852461D-04
   current occupation vector 
    18 10 10  3
    18 10 10  3
      60         -1713.224299289820237              0.1906479518D-04
   current occupation vector 
    18 10 10  3
    18 10 10  3
      61         -1713.224299289870714              0.2034019982D-04
   current occupation vector 
    18 10 10  3
    18 10 10  3
      62         -1713.224299289857981              0.9751969500D-05
   current occupation vector 
    18 10 10  3
    18 10 10  3
      63         -1713.224299289844794              0.7373418486D-05
   current occupation vector 
    18 10 10  3
    18 10 10  3
      64         -1713.224299289862074              0.7351494545D-05
   current occupation vector 
    18 10 10  3
    18 10 10  3
      65         -1713.224299289854343              0.5137060707D-05
   current occupation vector 
    18 10 10  3
    18 10 10  3
      66         -1713.224299289859800              0.1377903114D-05
   current occupation vector 
    18 10 10  3
    18 10 10  3
      67         -1713.224299289865712              0.2996400938D-05
   current occupation vector 
    18 10 10  3
    18 10 10  3
      68         -1713.224299289844794              0.1728673459D-05
   current occupation vector 
    18 10 10  3
    18 10 10  3
      69         -1713.224299289865257              0.9735892692D-06
   current occupation vector 
    18 10 10  3
    18 10 10  3
      70         -1713.224299289881174              0.2393850203D-06
   current occupation vector 
    18 10 10  3
    18 10 10  3
      71         -1713.224299289850251              0.6664402004D-06
   current occupation vector 
    18 10 10  3
    18 10 10  3
      72         -1713.224299289862984              0.1784500351D-05
   current occupation vector 
    18 10 10  3
    18 10 10  3
      73         -1713.224299289848432              0.8764229920D-06
   current occupation vector 
    18 10 10  3
    18 10 10  3
      74         -1713.224299289874352              0.9495102620D-06
   current occupation vector 
    18 10 10  3
    18 10 10  3
      75         -1713.224299289865257              0.4858826674D-06
   current occupation vector 
    18 10 10  3
    18 10 10  3
      76         -1713.224299289889359              0.7542782958D-06
   current occupation vector 
    18 10 10  3
    18 10 10  3
      77         -1713.224299289872079              0.8030751386D-07
   current occupation vector 
    18 10 10  3
    18 10 10  3
      78         -1713.224299289846158              0.5607704248D-06
   current occupation vector 
    18 10 10  3
    18 10 10  3
      79         -1713.224299289847067              0.1694459262D-06
   current occupation vector 
    18 10 10  3
    18 10 10  3
      80         -1713.224299289876171              0.7874646490D-07
   current occupation vector 
    18 10 10  3
    18 10 10  3
      81         -1713.224299289874807              0.6810174780D-07
   current occupation vector 
    18 10 10  3
    18 10 10  3
      82         -1713.224299289862984              0.2812044819D-07
   current occupation vector 
    18 10 10  3
    18 10 10  3
      83         -1713.224299289882538              0.3704299845D-07
   current occupation vector 
    18 10 10  3
    18 10 10  3
      84         -1713.224299289877536              0.1350208256D-07
   current occupation vector 
    18 10 10  3
    18 10 10  3
      85         -1713.224299289878445              0.1391902060D-07
   current occupation vector 
    18 10 10  3
    18 10 10  3
      86         -1713.224299289891633              0.3291956574D-07
   current occupation vector 
    18 10 10  3
    18 10 10  3
      87         -1713.224299289865257              0.2508419827D-07
   current occupation vector 
    18 10 10  3
    18 10 10  3
      88         -1713.224299289845703              0.5191417429D-07
   current occupation vector 
    18 10 10  3
    18 10 10  3
      89         -1713.224299289874352              0.6465737812D-07
   current occupation vector 
    18 10 10  3
    18 10 10  3
      90         -1713.224299289869805              0.1063146371D-07
   current occupation vector 
    18 10 10  3
    18 10 10  3
      91         -1713.224299289871169              0.2083569717D-07
   current occupation vector 
    18 10 10  3
    18 10 10  3
      92         -1713.224299289881174              0.2435464941D-08
   current occupation vector 
    18 10 10  3
    18 10 10  3
      93         -1713.224299289885266              0.1956109852D-07
   current occupation vector 
    18 10 10  3
    18 10 10  3
      94         -1713.224299289870260              0.2957716472D-07
   current occupation vector 
    18 10 10  3
    18 10 10  3
      95         -1713.224299289865257              0.4420623867D-08
   current occupation vector 
    18 10 10  3
    18 10 10  3
      96         -1713.224299289871624              0.1549748996D-07
   current occupation vector 
    18 10 10  3
    18 10 10  3
      97         -1713.224299289866622              0.3609195609D-08
   current occupation vector 
    18 10 10  3
    18 10 10  3
      98         -1713.224299289863893              0.9808605927D-08
   current occupation vector 
    18 10 10  3
    18 10 10  3
      99         -1713.224299289878900              0.2714051650D-08
   current occupation vector 
    18 10 10  3
    18 10 10  3
     100         -1713.224299289877081              0.2033639035D-08
   current occupation vector 
    18 10 10  3
    18 10 10  3
     101         -1713.224299289871624              0.1820792406D-08
   current occupation vector 
    18 10 10  3
    18 10 10  3
     102         -1713.224299289869805              0.3256368508D-08
   current occupation vector 
    18 10 10  3
    18 10 10  3
     103         -1713.224299289877536              0.3733020115D-08
   current occupation vector 
    18 10 10  3
    18 10 10  3

  SCF has converged.

 Density matrix saved to file den.dat
 total electron number:   81.999999999999986     
     E(SCF)=     -1713.224299289851615              0.9086873476D-09

  Eigenvector printing suppressed.

 @PUTMOS-I, Writing converged MOs to NEWMOS. 
 @PUTMOS-I, Symmetry   1 Full Blocks 22 Partial Blocksize   1
 @PUTMOS-I, Symmetry   2 Full Blocks 15 Partial Blocksize   0
 @PUTMOS-I, Symmetry   3 Full Blocks 15 Partial Blocksize   0
 @PUTMOS-I, Symmetry   4 Full Blocks  8 Partial Blocksize   2
 @PUTFOCK-I, Writing converged Fock matrix to NEWFOCK. 
 @PUTFOCK-I, Symmetry   1 Full Blocks 22 Partial Blocksize   1
 @PUTFOCK-I, Symmetry   2 Full Blocks 15 Partial Blocksize   0
 @PUTFOCK-I, Symmetry   3 Full Blocks 15 Partial Blocksize   0
 @PUTFOCK-I, Symmetry   4 Full Blocks  8 Partial Blocksize   2



  ORBITAL EIGENVALUES (ALPHA)  (1H = 27.2113834 eV)

       MO #        E(hartree)               E(eV)           FULLSYM    COMPSYM
       ----   --------------------   --------------------   -------   ---------
    1     1        -261.3293509686       -7111.1331628790      A1        A1 (1)
    2     2         -31.8945257887        -867.8941695978      A1        A1 (1)
    3    90         -27.3862232325        -745.2170202579      B1        B1 (2)
    4   150         -27.3740868036        -744.8867712379      B2        B2 (3)
    5     3         -27.3625933263        -744.5740178199      A1        A1 (1)
    6    91         -20.6908900117        -563.0277409965      E         B1 (2)
    7     4         -20.6908890906        -563.0277159318      E         A1 (1)
    8   151         -20.6561169663        -562.0815183265      E         B2 (3)
    9     5         -20.6561166919        -562.0815108575      E         A1 (1)
   10    92         -11.4098570415        -310.4779944952      E         B1 (2)
   11     6         -11.4098538752        -310.4779083359      E         A1 (1)
   12     7         -11.3872608347        -309.8631204489      E         A1 (1)
   13   152         -11.3872598500        -309.8630936551      E         B2 (3)
   14     8          -4.0853199608        -111.1672077640      A1        A1 (1)
   15    93          -2.6802809464         -72.9341524534      B1        B1 (2)
   16   153          -2.6716570223         -72.6994835484      B2        B2 (3)
   17     9          -2.6524662308         -72.1772755627      A1        A1 (1)
   18    10          -1.5239367529         -41.4684272593      A1        A1 (1)
   19    94          -1.5238920458         -41.4672107181      B1        B1 (2)
   20    11          -1.4879083335         -40.4880441277      A1        A1 (1)
   21   154          -1.4877903111         -40.4848325729      B2        B2 (3)
   22    12          -0.8486648106         -23.0933435382      A1        A1 (1)
   23    95          -0.8249388354         -22.4477269307      B1        B1 (2)
   24    13          -0.8004233862         -21.7806276453      A1        A1 (1)
   25   155          -0.7982479762         -21.7214317299      B2        B2 (3)
   26    14          -0.7118959564         -19.3716738098      A1        A1 (1)
   27   210          -0.6639220861         -18.0662384315      A2        A2 (4)
   28   156          -0.6604030922         -17.9704817416      B2        B2 (3)
   29    96          -0.6571341273         -17.8815286840      B1        B1 (2)
   30    97          -0.6484225158         -17.6444736826      B1        B1 (2)
   31    15          -0.6482119009         -17.6387425586      A1        A1 (1)
   32   157          -0.6266165808         -17.0511040242      B2        B2 (3)
   33    16          -0.6254517549         -17.0194075012      A1        A1 (1)
   34   211          -0.6168837754         -16.7862609260      A2        A2 (4)
   35   158          -0.6109830102         -16.6256929413      B2        B2 (3)
   36    17          -0.6012591178         -16.3610923763      A1        A1 (1)
   37    98          -0.5978602064         -16.2686032960      B1        B1 (2)
   38    99          -0.4356101206         -11.8535540046      B1        B1 (2)
   39   212          -0.4323558084         -11.7649996678      A2        A2 (4)
   40    18          -0.3560988525          -9.6899424043      A1        A1 (1)
   41   159          -0.3334490828          -9.0736108376      B2        B2 (3)
  +++++++++++++++++++++++++++++++++++++++++++++++++++++++++++++++++++++++++++++
   42    19           0.0001315812           0.0035805066      A1        A1 (1)
   43    20           0.0257365646           0.7003275267      A1        A1 (1)
   44   100           0.0293822226           0.7995309255      B1        B1 (2)
   45   160           0.0298808861           0.8131002468      B2        B2 (3)
   46    21           0.0353026688           0.9606344557      A1        A1 (1)
   47   161           0.0796796385           2.1681931937      B2        B2 (3)
   48    22           0.0841632651           2.2901988748      A1        A1 (1)
   49   213           0.0878202903           2.3897115908      A2        A2 (4)
   50    23           0.0878386900           2.3902122704      A1        A1 (1)
   51   101           0.0883251971           2.4034508033      B1        B1 (2)
   52    24           0.0970492252           2.6408436758      A1        A1 (1)
   53   102           0.1043746194           2.8401777854      B1        B1 (2)
   54   162           0.1098414064           2.9889366219      B2        B2 (3)
   55   214           0.1128998828           3.0721619977      A2        A2 (4)
   56   163           0.1227210137           3.3394085546      B2        B2 (3)
   57   103           0.1250100785           3.4016971758      B1        B1 (2)
   58    25           0.1364125587           3.7119744356      A1        A1 (1)
   59   104           0.1386971292           3.7741407588      B1        B1 (2)
   60   164           0.1431420793           3.8950940013      B2        B2 (3)
   61    26           0.1443418042           3.9277401735      A1        A1 (1)
   62    27           0.1479714931           4.0265090305      A1        A1 (1)
   63   215           0.1484979761           4.0408353626      A2        A2 (4)
   64   165           0.1536402058           4.1807625453      B2        B2 (3)
   65   105           0.1545091347           4.2044073045      B1        B1 (2)
   66    28           0.1627052939           4.4274361340      A1        A1 (1)
   67   106           0.1628940631           4.4325728046      B1        B1 (2)
   68   166           0.1639388952           4.4610041314      B2        B2 (3)
   69    29           0.1788971833           4.8680398446      A1        A1 (1)
   70   216           0.1897444291           5.1632084091      A2        A2 (4)
   71   107           0.1910164542           5.1978219699      B1        B1 (2)
   72    30           0.1989089405           5.4125874424      A1        A1 (1)
   73   217           0.2143393819           5.8324710998      A2        A2 (4)
   74   167           0.2210267821           6.0144445083      B2        B2 (3)
   75    31           0.2300724217           6.2605888779      A1        A1 (1)
   76   168           0.2519675838           6.8563865285      B2        B2 (3)
   77    32           0.2648703313           7.2074881364      A1        A1 (1)
   78    33           0.2680667299           7.2944665635      A1        A1 (1)
   79   108           0.2687518399           7.3131093551      B1        B1 (2)
   80   169           0.3083681041           8.3911227085      B2        B2 (3)
   81   109           0.3149396426           8.5699433634      B1        B1 (2)
   82    34           0.3220630276           8.7637805226      A1        A1 (1)
   83    35           0.3317614008           9.0276866751      A1        A1 (1)
   84   110           0.3326238574           9.0511553106      B1        B1 (2)
   85   170           0.3377174769           9.1897597444      B2        B2 (3)
   86    36           0.3394993647           9.2382473756      A1        A1 (1)
   87   171           0.3443780365           9.3710027870      B2        B2 (3)
   88   218           0.3546320832           9.6500295821      A2        A2 (4)
   89   111           0.3701842125          10.0732245345      B1        B1 (2)
   90   219           0.3740743997          10.1790819099      A2        A2 (4)
   91    37           0.3774744897          10.2716030638      A1        A1 (1)
   92    38           0.4056501764          11.0383024763      A1        A1 (1)
   93    39           0.4257151694          11.5842986949      A1        A1 (1)
   94   112           0.4274045313          11.6302685676      B1        B1 (2)
   95   220           0.4281378781          11.6502239502      A2        A2 (4)
   96   172           0.4377901936          11.9128768062      B2        B2 (3)
   97   113           0.4404047835          11.9840234145      B1        B1 (2)
   98    40           0.4629432536          12.5973263654      A1        A1 (1)
   99    41           0.4877514328          13.2723912420      A1        A1 (1)
  100   114           0.4898576663          13.3297047686      B1        B1 (2)
  101   173           0.4907757362          13.3546867215      B2        B2 (3)
  102    42           0.5158811923          14.0378409118      A1        A1 (1)
  103   221           0.5174162589          14.0796121982      A2        A2 (4)
  104   174           0.5266682974          14.3313729642      B2        B2 (3)
  105   222           0.5471537313          14.8888099601      A2        A2 (4)
  106   175           0.5561921526          15.1347579078      B2        B2 (3)
  107    43           0.5600403457          15.2394725659      A1        A1 (1)
  108   115           0.5866618488          15.9638804928      B1        B1 (2)
  109   116           0.6101263658          16.6023824628      B1        B1 (2)
  110   176           0.6119035034          16.6507408359      B2        B2 (3)
  111    44           0.6299543211          17.1419285571      A1        A1 (1)
  112    45           0.6456713006          17.5696093113      A1        A1 (1)
  113   117           0.6713570611          18.2685543891      B1        B1 (2)
  114   177           0.7053650086          19.1939576848      B2        B2 (3)
  115    46           0.7086347986          19.2829331959      A1        A1 (1)
  116   223           0.7184175476          19.5491353287      A2        A2 (4)
  117   118           0.7229470682          19.6723898501      B1        B1 (2)
  118    47           0.7245893730          19.7170792365      A1        A1 (1)
  119   178           0.7565768140          20.5875017586      B2        B2 (3)
  120    48           0.7592044809          20.6590042099      A1        A1 (1)
  121   119           0.7594006686          20.6643427471      B1        B1 (2)
  122   224           0.7834876370          21.3197824801      A2        A2 (4)
  123   179           0.8070634841          21.9613138944      B2        B2 (3)
  124    49           0.8102928304          22.0491888754      A1        A1 (1)
  125   120           0.8892035109          24.1964576551      B1        B1 (2)
  126   180           0.9001771713          24.4950661353      B2        B2 (3)
  127    50           0.9075064522          24.6945060083      A1        A1 (1)
  128    51           0.9211051684          25.0645458878      A1        A1 (1)
  129   225           0.9438582053          25.6836875005      A2        A2 (4)
  130    52           0.9540474790          25.9609517338      A1        A1 (1)
  131   121           0.9720314010          26.4503191294      B1        B1 (2)
  132   181           0.9810416969          26.6955017467      B2        B2 (3)
  133    53           1.0303427827          28.0370524938      A1        A1 (1)
  134   182           1.0384264757          28.2570209621      B2        B2 (3)
  135    54           1.0523959031          28.6371484071      A1        A1 (1)
  136   122           1.0546719021          28.6990814899      B1        B1 (2)
  137   183           1.0785144485          29.3478701600      B2        B2 (3)
  138   123           1.0910966872          29.6902502825      B1        B1 (2)
  139   226           1.1189320090          30.4476878953      A2        A2 (4)
  140    55           1.1349079706          30.8824159122      A1        A1 (1)
  141   184           1.1680644765          31.7846503058      B2        B2 (3)
  142   124           1.1689947952          31.8099655653      B1        B1 (2)
  143    56           1.1729911153          31.9187109625      A1        A1 (1)
  144   227           1.1764562542          32.0130021852      A2        A2 (4)
  145   185           1.1784054459          32.0660423888      B2        B2 (3)
  146   186           1.2138027944          33.0292532091      B2        B2 (3)
  147    57           1.2166921300          33.1078760283      A1        A1 (1)
  148   228           1.2221828960          33.2572873688      A2        A2 (4)
  149   125           1.2324016131          33.5353527981      B1        B1 (2)
  150   229           1.2602390458          34.2928478498      A2        A2 (4)
  151    58           1.2609048805          34.3109661329      A1        A1 (1)
  152   126           1.2774653361          34.7615990409      B1        B1 (2)
  153   127           1.2789404425          34.8017387267      B1        B1 (2)
  154    59           1.2920182739          35.1576046100      A1        A1 (1)
  155   128           1.3296595383          36.1818754883      B1        B1 (2)
  156   230           1.3519042314          36.7871843614      A2        A2 (4)
  157   129           1.3944435508          37.9447380910      B1        B1 (2)
  158    60           1.3958865535          37.9840041890      A1        A1 (1)
  159    61           1.4056181244          38.2488136970      A1        A1 (1)
  160   187           1.4069551257          38.2851953531      B2        B2 (3)
  161   188           1.4447553012          39.3137904189      B2        B2 (3)
  162    62           1.4672199859          39.9250855687      A1        A1 (1)
  163   130           1.4689084915          39.9710321411      B1        B1 (2)
  164   231           1.4703485939          40.0102193214      A2        A2 (4)
  165   189           1.4812903417          40.3079594148      B2        B2 (3)
  166    63           1.5346200541          41.7591346645      A1        A1 (1)
  167   190           1.5730468876          42.8047819654      B2        B2 (3)
  168    64           1.5766462276          42.9027249866      A1        A1 (1)
  169    65           1.6310791327          44.3839196363      A1        A1 (1)
  170   131           1.6609539028          45.1968534580      B1        B1 (2)
  171   191           1.6623474698          45.2347743457      B2        B2 (3)
  172   232           1.6661564521          45.3384220221      A2        A2 (4)
  173    66           1.6849183409          45.8489589718      A1        A1 (1)
  174   192           1.6927312711          46.0615596122      B2        B2 (3)
  175   132           1.7087236554          46.4967345124      B1        B1 (2)
  176   233           1.7305580670          47.0908790566      A2        A2 (4)
  177   193           1.7586816794          47.8561614554      B2        B2 (3)
  178   234           1.7699269114          48.1621597762      A2        A2 (4)
  179   133           1.7760475846          48.3287117612      B1        B1 (2)
  180   134           1.7982942012          48.9340729736      B1        B1 (2)
  181    67           1.8036807647          49.0806488199      A1        A1 (1)
  182    68           1.8372592582          49.9943660790      A1        A1 (1)
  183   235           1.8431262310          50.1540145256      A2        A2 (4)
  184   194           1.8531084694          50.4256450417      B2        B2 (3)
  185   135           1.8547052324          50.4690951729      B1        B1 (2)
  186   136           1.9121965034          52.0335121901      B1        B1 (2)
  187    69           1.9139301407          52.0806868584      A1        A1 (1)
  188   195           1.9402509736          52.7969131337      B2        B2 (3)
  189    70           1.9776454685          53.8144690735      A1        A1 (1)
  190   196           2.0132704556          54.7838742552      B2        B2 (3)
  191   236           2.0141594572          54.8080652199      A2        A2 (4)
  192   137           2.0813693918          56.6369405167      B1        B1 (2)
  193    71           2.1028396590          57.2211761902      A1        A1 (1)
  194   237           2.1720015546          59.1031670487      A2        A2 (4)
  195    72           2.1889140170          59.5633785473      A1        A1 (1)
  196   197           2.3003651519          62.5961181086      B2        B2 (3)
  197   138           2.3126035417          62.9291416264      B1        B1 (2)
  198    73           2.3767893909          64.6757273762      A1        A1 (1)
  199    74           2.4676478713          67.1481123215      A1        A1 (1)
  200    75           2.5005693301          68.0439507599      A1        A1 (1)
  201   198           2.5221111433          68.6301332975      B2        B2 (3)
  202   199           2.5700485991          69.9345777854      B2        B2 (3)
  203   139           2.6266379392          71.4744520165      B1        B1 (2)
  204   200           2.7532232412          74.9190132010      B2        B2 (3)
  205   140           2.7633873524          75.1955927298      B1        B1 (2)
  206   238           2.8369796151          77.1981400043      A2        A2 (4)
  207    76           2.8637329928          77.9261364235      A1        A1 (1)
  208   141           2.9342619816          79.8453277771      B1        B1 (2)
  209    77           3.0368156769          82.6359556986      A1        A1 (1)
  210   201           3.1224682503          84.9666807123      B2        B2 (3)
  211    78           3.1420071687          85.4983617134      A1        A1 (1)
  212    79           3.2830965121          89.3375979292      A1        A1 (1)
  213   142           3.2891339747          89.5018856390      B1        B1 (2)
  214   143           3.5841364360          97.5293107171      B1        B1 (2)
  215    80           3.5966427804          97.8696256506      A1        A1 (1)
  216   202           3.5996277941          97.9508520018      B2        B2 (3)
  217   239           3.6072397191          98.1579830122      A2        A2 (4)
  218   203           3.6178779129          98.4474629812      B2        B2 (3)
  219   240           3.6410125176          99.0769875807      A2        A2 (4)
  220   144           3.6705982918          99.8820574251      B1        B1 (2)
  221   204           3.6787948757         100.1050978132      B2        B2 (3)
  222    81           3.6910661210         100.4390153734      A1        A1 (1)
  223   145           3.7229142340         101.3056465874      B1        B1 (2)
  224   241           3.7337451853         101.6003717544      A2        A2 (4)
  225    82           3.7354235793         101.6460431775      A1        A1 (1)
  226   146           3.7874767479         103.0624819050      B1        B1 (2)
  227    83           3.7907809523         103.1523938773      A1        A1 (1)
  228   242           3.8123690489         103.7398358526      A2        A2 (4)
  229   205           3.8168503678         103.8617787395      B2        B2 (3)
  230    84           3.8605525875         105.0509765934      A1        A1 (1)
  231   206           3.8736139933         105.4063955149      B2        B2 (3)
  232    85           4.0858049991         111.1804063282      A1        A1 (1)
  233   147           4.1525424884         112.9964257366      B1        B1 (2)
  234    86           4.1529452357         113.0073850484      A1        A1 (1)
  235   207           4.1580691868         113.1468148458      B2        B2 (3)
  236   148           4.2680882085         116.1405846266      B1        B1 (2)
  237   243           4.3087643528         117.2474387831      A2        A2 (4)
  238    87           4.3103597755         117.2908524420      A1        A1 (1)
  239   208           4.4502638147         121.0978348930      B2        B2 (3)
  240    88           4.5165981477         122.9028838615      A1        A1 (1)
  241    89           4.8074496725         130.8173562156      A1        A1 (1)
  242   209           4.8511925530         132.0076605071      B2        B2 (3)
  243   149           4.9423423225         134.4879718305      B1        B1 (2)


  VSCF finished.

 @CHECKOUT-I, Total execution time (CPU/WALL):      381.52/      64.76 seconds.
--executable xvscf finished with status     0 in       64.78 seconds (walltime).
 --invoking executable--
/opt/cfour/2.1/bin/xvtran
 @GETMEM-I,  Allocated   30517 MB of main memory.
  Full RHF integral transformation
  The following  17 MOs will be dropped:
    1  2  3  4  5  6  7  8  9 19 20 21 22 29 30 31 32
  There are 226 active molecular orbitals.
  Transformation of IIII integrals :
  1 pass through the AO integral file was required.
    11406849 AO integrals were read.
     7976542 MO integrals were written to HF2.
  Transformation of IIJJ integrals :
  1 pass through the AO integral file was required.
    22306272 AO integrals were read.
    16716336 MO integrals were written to HF2.
  Transformation of IJIJ integrals :
  1 pass through the AO integral file was required.
    43243480 AO integrals were read.
    32321376 MO integrals were written to HF2.
  Transformation of IJKL integrals :
  1 pass through the AO integral file was required.
    32303213 AO integrals were read.
    25589760 MO integrals were written to HF2.
  Summary of active molecular orbitals: 
------------------------------------------------------------------------

  Index      Eigenvalue    Symmetry    Index      Eigenvalue    Symmetry
------------------------------------------------------------------------
     1        -1.5239368        1       114         0.7229471        2
     2        -1.4879083        1       115         0.7594007        2
     3        -0.8486648        1       116         0.8892035        2
     4        -0.8004234        1       117         0.9720314        2
     5        -0.7118960        1       118         1.0546719        2
     6        -0.6482119        1       119         1.0910967        2
     7        -0.6254518        1       120         1.1689948        2
     8        -0.6012591        1       121         1.2324016        2
     9        -0.3560989        1       122         1.2774653        2
    10        -1.5238920        2       123         1.2789404        2
    11        -0.8249388        2       124         1.3296595        2
    12        -0.6571341        2       125         1.3944436        2
    13        -0.6484225        2       126         1.4689085        2
    14        -0.5978602        2       127         1.6609539        2
    15        -0.4356101        2       128         1.7087237        2
    16        -1.4877903        3       129         1.7760476        2
    17        -0.7982480        3       130         1.7982942        2
    18        -0.6604031        3       131         1.8547052        2
    19        -0.6266166        3       132         1.9121965        2
    20        -0.6109830        3       133         2.0813694        2
    21        -0.3334491        3       134         2.3126035        2
    22        -0.6639221        4       135         2.6266379        2
    23        -0.6168838        4       136         2.7633874        2
    24        -0.4323558        4       137         2.9342620        2
    25         0.0001316        1       138         3.2891340        2
    26         0.0257366        1       139         3.5841364        2
    27         0.0353027        1       140         3.6705983        2
    28         0.0841633        1       141         3.7229142        2
    29         0.0878387        1       142         3.7874767        2
    30         0.0970492        1       143         4.1525425        2
    31         0.1364126        1       144         4.2680882        2
    32         0.1443418        1       145         4.9423423        2
    33         0.1479715        1       146         0.0298809        3
    34         0.1627053        1       147         0.0796796        3
    35         0.1788972        1       148         0.1098414        3
    36         0.1989089        1       149         0.1227210        3
    37         0.2300724        1       150         0.1431421        3
    38         0.2648703        1       151         0.1536402        3
    39         0.2680667        1       152         0.1639389        3
    40         0.3220630        1       153         0.2210268        3
    41         0.3317614        1       154         0.2519676        3
    42         0.3394994        1       155         0.3083681        3
    43         0.3774745        1       156         0.3377175        3
    44         0.4056502        1       157         0.3443780        3
[...]
         7                D              0.00426708
         8                D              0.00426708
         7                D              0.00967010
         8                D              0.00967010
         7                D              0.00177322
         8                D              0.00177322
         7                D              0.00418938
         8                D              0.00418938
         7                D              0.00461438
         8                D              0.00461438
         7                D              0.00583258
         8                D              0.00583258
         7                D              0.00745853
         8                D              0.00745853
         7                D              0.00364794
         8                D              0.00364794
         7                D              0.00246932
         8                D              0.00246932
         7                D              0.00552194
         8                D              0.00552194
         9                S              2.00289219
        10                S              2.00289219
         9                S              1.84505533
        10                S              1.84505533
         9                S             -0.00629655
        10                S             -0.00629655
         9                S              0.08983930
        10                S              0.08983930
         9                P              1.53755198
        10                P              1.53755198
         9                P             -0.21993169
        10                P             -0.21993169
         9                P             -0.01233055
        10                P             -0.01233055
         9                P              1.52123563
        10                P              1.52123563
         9                P              0.01742711
        10                P              0.01742711
         9                P              0.01826654
        10                P              0.01826654
         9                P              1.47649854
        10                P              1.47649854
         9                P              0.01514961
        10                P              0.01514961
         9                P              0.01953346
        10                P              0.01953346
         9                D              0.00707394
        10                D              0.00707394
         9                D              0.00194613
        10                D              0.00194613
         9                D              0.00622374
        10                D              0.00622374
         9                D              0.01311983
        10                D              0.01311983
         9                D              0.00648146
        10                D              0.00648146
         9                D              0.01330214
        10                D              0.01330214
         9                D              0.00177597
        10                D              0.00177597
         9                D              0.00054232
        10                D              0.00054232
         9                D              0.00001098
        10                D              0.00001098
         9                D             -0.00001575
        10                D             -0.00001575
         9                D              0.00177225
        10                D              0.00177225
         9                D              0.00040578
        10                D              0.00040578
 -------------------------------------------------------
  Population analysis by atoms (atomic charges).
 -------------------------------------------------------
     Z-matrix
      Center          Function          Population
 -------------------------------------------------------
         1                              25.70098107
         3                               5.55388644
         4                               5.55388644
         5                               5.76019250
         6                               5.76019250
         7                               8.47790082
         8                               8.47790082
         9                               8.35752970
        10                               8.35752970
 -------------------------------------------------------

  Mulliken population analysis of CCSD(T) density.
   Total density is analyzed.

  Population analysis by orbitals.
 -------------------------------------------------------
     Z-matrix
      Center          Function          Population
 -------------------------------------------------------
         1                S              1.99995052
         1                S              1.99913721
         1                S              2.03630519
         1                S              0.65856845
         1                S              0.01710040
         1                S              0.15671660
         1                S             -0.01968309
         1                P              2.00001451
         1                P              1.99157957
         1                P              0.71376432
         1                P             -0.84633686
         1                P              0.21602061
         1                P              0.00087701
         1                P              1.99991507
         1                P              2.01996773
         1                P              0.34769731
         1                P             -0.00796121
         1                P              0.07312447
         1                P             -0.00242912
         1                P              1.99998008
         1                P              2.00078793
         1                P              0.18423947
         1                P             -0.18295701
         1                P              0.07981095
         1                P             -0.00260368
         1                D              0.48423454
         1                D              0.02133809
         1                D             -0.05664413
         1                D             -0.00567080
         1                D              1.44920815
         1                D              0.03508556
         1                D             -0.04429030
         1                D             -0.05351951
         1                D              1.53443279
         1                D              0.03098503
         1                D             -0.03519322
         1                D             -0.02618433
         1                D              0.73579390
         1                D              0.02182722
         1                D             -0.05121028
         1                D              0.00144905
         1                D              1.46437001
         1                D              0.02885314
         1                D             -0.05789909
         1                D             -0.00762157
         1                D              0.95188411
         1                D              0.01968198
         1                D              0.00062354
         1                D             -0.00265629
         1                F              0.00168988
         1                F              0.00766806
         1                F              0.00258149
         1                F              0.01257620
         1                F              0.00238970
         1                F              0.01219440
         1                F              0.00280455
         1                F              0.01117304
         1                F              0.00319648
         1                F              0.00656354
         1                F              0.00286623
         1                F              0.00604214
         1                F              0.00139171
         1                F              0.00712110
         1                F              0.00330108
         1                F              0.00681750
         1                F              0.00285918
         1                F              0.01099007
         1                F              0.00139763
         1                F              0.00340247
         3                S              2.00709929
         4                S              2.00709929
         3                S              1.58116906
         4                S              1.58116906
         3                S             -0.11786040
         4                S             -0.11786040
         3                S             -0.13604322
         4                S             -0.13604322
         3                P              0.74156003
         4                P              0.74156003
         3                P             -0.12023686
         4                P             -0.12023686
         3                P              0.00630817
         4                P              0.00630817
         3                P              1.03572392
         4                P              1.03572392
         3                P             -0.27584887
         4                P             -0.27584887
         3                P             -0.00318903
         4                P             -0.00318903
         3                P              0.92489434
         4                P              0.92489434
         3                P             -0.16641405
         4                P             -0.16641405
         3                P              0.00008074
         4                P              0.00008074
         3                D              0.00883159
         4                D              0.00883159
         3                D             -0.00271324
         4                D             -0.00271324
         3                D              0.04124593
         4                D              0.04124593
         3                D              0.01320268
         4                D              0.01320268
         3                D              0.01760667
         4                D              0.01760667
         3                D              0.00504148
         4                D              0.00504148
         3                D              0.03429609
         4                D              0.03429609
         3                D              0.00395908
         4                D              0.00395908
         3                D              0.03796318
         4                D              0.03796318
         3                D              0.00384654
         4                D              0.00384654
         3                D              0.02350035
         4                D              0.02350035
         3                D              0.00772840
         4                D              0.00772840
         5                S              2.00733542
         6                S              2.00733542
         5                S              1.59736595
         6                S              1.59736595
         5                S             -0.10590837
         6                S             -0.10590837
         5                S             -0.03615465
         6                S             -0.03615465
         5                P              1.15771862
         6                P              1.15771862
         5                P             -0.32747979
         6                P             -0.32747979
         5                P             -0.01188151
         6                P             -0.01188151
         5                P              0.76158924
         6                P              0.76158924
         5                P             -0.12741249
         6                P             -0.12741249
         5                P              0.03845841
         6                P              0.03845841
         5                P              0.75613311
         6                P              0.75613311
         5                P             -0.11741500
         6                P             -0.11741500
         5                P              0.02827365
         6                P              0.02827365
         5                D              0.02567556
         6                D              0.02567556
         5                D             -0.01159277
         6                D             -0.01159277
         5                D              0.05604459
         6                D              0.05604459
         5                D              0.02224301
         6                D              0.02224301
         5                D              0.05162030
         6                D              0.05162030
         5                D              0.01541839
         6                D              0.01541839
         5                D              0.00816667
         6                D              0.00816667
         5                D             -0.00242982
         6                D             -0.00242982
         5                D              0.00399255
         6                D              0.00399255
         5                D              0.00359806
         6                D              0.00359806
         5                D              0.00872338
         6                D              0.00872338
         5                D              0.00082512
         6                D              0.00082512
         7                S              2.00306356
         8                S              2.00306356
         7                S              1.85440272
         8                S              1.85440272
         7                S             -0.04088850
         8                S             -0.04088850
         7                S              0.13399274
         8                S              0.13399274
         7                P              1.46076908
         8                P              1.46076908
         7                P             -0.01119133
         8                P             -0.01119133
         7                P              0.03692071
         8                P              0.03692071
         7                P              1.50374750
         8                P              1.50374750
         7                P             -0.15331245
         8                P             -0.15331245
         7                P              0.00398605
         8                P              0.00398605
         7                P              1.50289359
         8                P              1.50289359
         7                P             -0.07481157
         8                P             -0.07481157
         7                P              0.02225640
         8                P              0.02225640
         7                D              0.00400754
         8                D              0.00400754
         7                D              0.00158530
         8                D              0.00158530
         7                D              0.00769183
         8                D              0.00769183
         7                D              0.01029961
         8                D              0.01029961
         7                D              0.00530064
         8                D              0.00530064
         7                D              0.00582594
         8                D              0.00582594
         7                D              0.00688634
         8                D              0.00688634
         7                D              0.00614599
         8                D              0.00614599
         7                D              0.01070256
         8                D              0.01070256
         7                D              0.00445800
         8                D              0.00445800
         7                D              0.00486279
         8                D              0.00486279
         7                D              0.00632739
         8                D              0.00632739
         9                S              2.00305218
        10                S              2.00305218
         9                S              1.86028603
        10                S              1.86028603
         9                S             -0.05005936
        10                S             -0.05005936
         9                S              0.10966581
        10                S              0.10966581
         9                P              1.52131804
        10                P              1.52131804
         9                P             -0.22157161
        10                P             -0.22157161
         9                P             -0.00989846
        10                P             -0.00989846
         9                P              1.48674644
        10                P              1.48674644
         9                P             -0.01941030
        10                P             -0.01941030
         9                P              0.01760123
        10                P              0.01760123
         9                P              1.44957151
        10                P              1.44957151
         9                P             -0.02314295
        10                P             -0.02314295
         9                P              0.02006306
        10                P              0.02006306
         9                D              0.00907694
        10                D              0.00907694
         9                D              0.00215059
        10                D              0.00215059
         9                D              0.00966476
        10                D              0.00966476
         9                D              0.01320261
        10                D              0.01320261
         9                D              0.00977100
        10                D              0.00977100
         9                D              0.01342103
        10                D              0.01342103
         9                D              0.00407317
        10                D              0.00407317
         9                D              0.00165483
        10                D              0.00165483
         9                D              0.00359361
        10                D              0.00359361
         9                D              0.00218797
        10                D              0.00218797
         9                D              0.00405877
        10                D              0.00405877
         9                D              0.00159589
        10                D              0.00159589
 -------------------------------------------------------
  Population analysis by atoms (atomic charges).
 -------------------------------------------------------
     Z-matrix
      Center          Function          Population
 -------------------------------------------------------
         1                              25.98149045
         3                               5.67175189
         4                               5.67175189
         5                               5.80290764
         6                               5.80290764
         7                               8.31592245
         8                               8.31592245
         9                               8.21867280
        10                               8.21867280
 -------------------------------------------------------
 @CHECKOUT-I, Total execution time (CPU/WALL):        5.88/       0.20 seconds.
--executable xprops finished with status     0 in        0.23 seconds (walltime).
  The final electronic energy is     -1715.054722005123722 a.u. 
  This computation required                         8266.46 seconds (walltime).
Attempting to clean /scratch/jearias... save is False. TIME: Fri 29 Aug 2025 06:37:54 PM PDT
Total of 8267 seconds elapsed for this process.
