 --invoking executable--
/opt/cfour/2.1/bin/xjoda


   *************************************************************************
         <<<     CCCCCC     CCCCCC   |||     CCCCCC     CCCCCC   >>>
       <<<      CCC        CCC       |||    CCC        CCC         >>>
      <<<      CCC        CCC        |||   CCC        CCC            >>>
    <<<        CCC        CCC        |||   CCC        CCC              >>>
      <<<      CCC        CCC        |||   CCC        CCC            >>>
       <<<      CCC        CCC       |||    CCC        CCC         >>>
         <<<     CCCCCC     CCCCCC   |||     CCCCCC     CCCCCC   >>>
   *************************************************************************

     ****************************************************************
     * CFOUR Coupled-Cluster techniques for Computational Chemistry *
     ****************************************************************


   Department of Chemistry                Institut fuer Physikalische Chemie
   University of Florida                  Universitaet Mainz
   Gainesville, FL 32611, USA             D-55099 Mainz, Germany

   Department of Chemistry                Fakultaet fuer Chemie und Biowiss.
   Johns Hopkins University               Karlsruher Institut fuer Technologie
   Baltimore, MD 21218, USA               D-76131 Karlsruhe, Germany

   Department of Chemistry                Department of Physical Chemistry
   Southern Methodist University          Eotvos Lorand University
   Dallas, TX 75275, USA                  H-1053 Budapest, Hungary


                       Version 2.1

                     node013                                           
                     Thu 28 Aug 2025 11:24:59 PM PDT                   
                     integer*8 version is running

********************************************************************************
*                          Input from ZMAT file                                *
********************************************************************************
Optimization on FeCO5                                                           
Fe                                                                              
C 1 rFeCAx*                                                                     
C 1 rFeCEq* 2 a90                                                               
C 1 rFeCEq* 3 a120 2 dn90                                                       
C 1 rFeCEq* 3 a120 2 d90                                                        
C 1 rFeCAx* 3 a90 4 dn90                                                        
O 1 rFeOAx* 3 a90 4 d90                                                         
O 1 rFeOAx* 3 a90 4 dn90                                                        
O 1 rFeOEq* 2 a90 3 d0                                                          
O 1 rFeOEq* 2 a90 4 d0                                                          
O 1 rFeOEq* 2 a90 5 d0                                                          
                                                                                
rFeCAx =    1.829565855794663                                                   
rFeCEq =    1.830427937707052                                                   
rFeOAx =    2.983800083699976                                                   
rFeOEq =    2.987529988574558                                                   
a90    =   90.00000                                                             
a120   =  120.00000                                                             
dn90   =  -90.00000                                                             
d0     =    0.00000                                                             
d90    =   90.00000                                                             
                                                                                
*ACES2(CALC = CCSD(T)                                                           
      BASIS = SPECIAL                                                           
FROZEN_CORE = ON                                                                
 OCCUPATION = 23-11-11-3                                                        
LOCK_ORBOCC = ON                                                                
SCF_DAMPING = 100                                                               
   SCF_CONV = 8                                                                 
    CC_CONV = 6                                                                 
 LINEQ_CONV = 6                                                                 
   SCF_MAXCYC = 500                                                             
    CC_MAXCYC = 500                                                             
 LINEQ_MAXCYC = 500                                                             
       MEMORY = 32                                                              
     MEM_UNIT = GB)                                                             
                                                                                
Fe:aug-cc-pVDZ                                                                  
C:aug-cc-pVDZ                                                                   
C:aug-cc-pVDZ                                                                   
C:aug-cc-pVDZ                                                                   
C:aug-cc-pVDZ                                                                   
C:aug-cc-pVDZ                                                                   
O:aug-cc-pVDZ                                                                   
O:aug-cc-pVDZ                                                                   
O:aug-cc-pVDZ                                                                   
O:aug-cc-pVDZ                                                                   
O:aug-cc-pVDZ                                                                   
                                                                                
********************************************************************************
    -------------------------------------------------------------------
                    CFOUR Control Parameters 
    -------------------------------------------------------------------
        External           Internal           Value            Units
          Name               Name
    -------------------------------------------------------------------
       ABCDTYPE             IABCDT         STANDARD    [  0]    ***   
       ANHARMONIC           IANHAR         OFF         [  0]    ***   
       ANH_ALGORIT          IANALG         STANDARD    [  0]    ***   
       ANH_DERIVAT          IANDER         SECOND      [  1]    ***   
       ANH_MODE             ANHMOD         VIBRATION   [  0]    ***   
       ANH_STEPSIZ          ICUBST             50000          x 10-6  
       ANH_SYMMETR          IANHSM         ABELIAN     [  0]    ***   
       AO_LADDERS           IAOLAD         SINGLEPASS  [  1]    ***   
       AV_SCF               IAVSCF         OFF         [  0]    ***   
       BASIS                IBASIS         SPECIAL     [  0]    ***   
       BOTHVECTORS          BOTHVC         OFF         [  0]    ***   
       BOX_POTENT           IPIAB          OFF         [  0]    ***   
       BREIT                IBREIT         OFF         [  0]    ***   
       BRUCK_CONV           IBRTOL          10D-  4             ***   
       BRUECKNER            IBRKNR         OFF         [  0]    ***   
       BUFFERSIZE           IBUFFS              4096            ***   
       CACHE_RECS           ICHREC             10               ***   
       CALCLEVEL            ICLLVL         CCSD(T)     [ 22]    ***   
       CCORBOPT             ICCORB         OFF         [  0]  x 0.01  
       CC_CONV              ICCCNV          10D-  6             ***   
       CC_EXPORDER          ICCEOR              5               ***   
       CC_EXTRAPOL          ICCEXT         DIIS        [  1]    ***   
       CC_GUESS             ICCGES         MP2         [  0]    ***   
       CC_MAXCYC            ICCCYC            500              cycles 
       CC_PROGRAM           ICCPRO         VCC         [  0]    ***   
       CHARGE               ICHRGE              0               ***   
       CHOLESKY             ICHOLE         OFF         [  0]    ***   
       CIS_CONV             ICISTL              5               ***   
       COMM_SIZE            IPSIZE            ***               ***   
       CONSTANT             ICONST         OLD         [  1]    ***   
       CONTINUUM            ICONTU         NONE        [  0]    ***   
       CONTRACTION          ICNTYP         GENERAL     [  1]    ***   
       COORDINATES          ICOORD         INTERNAL    [  0]    ***   
       CPHF_CONVER          ICPHFT          10D- 16             ***   
       CPHF_MAXCYC          ICPHFC             64              cycles 
       CUBIC                ICUBIC         OFF         [  0]    ***   
       CURVILINEAR          ICURVY         OFF         [  0]    ***   
       DBOC                 IDBOC          OFF         [  0]    ***   
       DCT                  IDCT           OFF         [  0]    ***   
       DERIV_LEV            IDRLVL         FIRST       [  1]    ***   
       DEVMEM_SIZE          IDVMEM         *********           MByte  
       DIAG_MRCC            IEOMST          10D-  0             ***   
       DIFF_TYPE            IDIFTY         RELAXED     [  0]    ***   
       DIRECT               IDIRCT         OFF         [  0]    ***   
       DROPMO               IDRPMO      NONE         
       ECP                  IECP           OFF         [  0]    ***   
       EIGENVECTOR          IVEC                1               ***   
       EL_ANHARM            IELANH         OFF         [  0]    ***   
       EOMFOLLOW            IEOMSR         ENERGY      [  0]    ***   
       EOMIP                IEOMIP         OFF         [  0]    ***   
       EOMLEVEL             HBARFM         SAME        [  0]    ***   
       EOM_MRCC             IMRCCE         NEW         [  1]    ***   
       EOM_NONIT            EOMNON         OFF         [  0]    ***   
       EOM_NSING            IEOMSI          10D-  0             ***   
       EOM_NSTATES          IMRCCD         DAVIDSON    [  0]    ***   
       EOM_NTRIP            IEOMTR          10D-  0             ***   
       EOM_ORDER            IEXORD         ENERGY      [  0]    ***   
       EOM_PROPSTA          IEOMST              0               ***   
       ESTATE_CONV          IEXTOL          10D-  5             ***   
       ESTATE_DIAG          IEXDIG         ITERATIVE   [  0]    ***   
       ESTATE_LOCK          IESLOC         ON          [  1]    ***   
       ESTATE_MAXC          IEXMXC             40               ***   
       ESTATE_PROP          IEXPRP         OFF         [  0]    ***   
       EVAL_HESS            IRECAL              0            # of cyc.
       EXCITATION           IEXCIT              0               ***   
       EXCITE               IEXCIT         NONE        [  0]    ***   
       EXTERN_POT           IEXPOT         OFF         [  0]    ***   
       FCGRADNEW            IFCGNW         ON          [  1]    ***   
       FC_FIELD             IFINFC              0             x 10-6  
       FD_CALTYPE           IFDCAL         GRADONLY    [  0]    ***   
       FD_PROJECT           IFDPRJ         OFF         [  1]    ***   
       FD_STEPSIZE          IDISFD              0            10-4 bohr
       FD_USEGROUP          IFDGRP         FULL        [  0]    ***   
       FILE_RECSIZ          IFLREC              4096           words  
       FINITE_PERT          IFIPER              0             x 10-6  
       FIXGEOM              IFIXGM         OFF         [  0]    ***   
       FOCK                 IFOCK          AO          [  1]    ***   
       FREQ_ALGORI          IVIALG         STANDARD    [  0]    ***   
       FROZEN_CORE          IFROCO         ON          [  1]    ***   
       GAMMA_ABCD           IGABCD         STORE       [  0]    ***   
       GAMMA_ABCI           IGABCI         STORE       [  0]    ***   
       GENBAS_1             IGNBS1              0               ***   
       GENBAS_2             IGNBS2              0               ***   
       GENBAS_3             IGNBS3              0               ***   
       GENBAS_4             IGNBS4              0               ***   
       GEO_CONV             ICONTL              5              H/bohr 
       GEO_MAXCYC           IOPTCY             50               ***   
       GEO_MAXSTEP          IMXSTP            300            millibohr
       GEO_METHOD           INR            NR          [  0]    ***   
       GIAO                 IGIAO          OFF         [  1]    ***   
       GIMIC                IGIMIC         OFF         [  0]    ***   
       GRID                 IGRID          OFF         [  0]    ***   
       GRID_ALGO            IGALGO         SERIAL      [  0]    ***   
       GUESS                IGUESS         MOREAD      [  0]    ***   
       HBAR                 IHBAR          OFF         [  0]    ***   
       HESS_TYPE            IHESTP         SCF         [  0]    ***   
       HF2_FILE             IHF2Fl         USE         [  1]    ***   
       HFSTABILITY          ISTABL         OFF         [  0]    ***   
       INCORE               INCORE         OFF         [  0]    ***   
       INPUT_MRCC           IMRCC          ON          [  1]    ***   
       INTEGRALS            INTTYP         VMOL        [  1]    ***   
       JODA_PRINT           IJPRNT              0               ***   
       KEYWORD_OUT          IDMPKW         NO          [  0]    ***   
       LINDEP_TOL           ILINDP              8               ***   
       LINEQ_CONV           IZTACN          10D-  6           cycles  
       LINEQ_EXPOR          ILMAXD              5               ***   
       LINEQ_MAXCY          ILMAXC            500               ***   
       LINEQ_TYPE           ILTYPE         DIIS        [  1]    ***   
       LOCK_ORBOCC          ILOCOC         ON          [  1]    ***   
       MEMORY_SIZE          IMEMSZ         *********           words  
       MEM_UNIT             IMEMU          GB          [  3]    ***   
       MRCC                 IMRCCC         OFF         [  0]    ***   
       MULTIPLICTY          IMULTP              1               ***   
       NACOUPLING           IVCOUP         OFF         [  0]    ***   
       NEGEVAL              IDIE           ABORT       [  0]    ***   
       NEWNORM              INEWNO         OFF         [  0]    ***   
       NON-HF               INONHF         OFF         [  0]    ***   
       NTOP_TAMP            ITOPT2             15               ***   
       NUC_MODEL            INUCMO         POINT       [  0]    ***   
       OCCUPATION           IOCCU   23, 11, 11,  3,
       OPEN-SHELL           IOPEN          SPIN-ORBITAL[  0]    ***   
       OPTVIB               IOPTVB         OFF         [  0]    ***   
       ORBITALS             IORBTP         STANDARD    [  0]    ***   
       PARALLEL             IPARAL         ON          [  1]    ***   
       PARA_INT             IPINTS         ON          [  1]    ***   
       PARA_PRINT           IPPRIN              0               ***   
       PERT_ORB             IPTORB         CANONICAL   [  1]    ***   
       POINTS               IGRDFD              0               ***   
       PRINT                IPRNT               0               ***   
       PROPS                IPROPS         OFF         [  0]    ***   
       PROP_INTEGR          IINTYP         INTERNAL    [  0]    ***   
       PSI                  IPSI           OFF         [  0]    ***   
       QC_ALG               IQCALG         FLM         [  0]    ***   
       QC_LINALG            IQCLIN         TRIDIAG     [  2]    ***   
       QC_MAXCYC            IQCMAX          10D-100           cycles  
       QC_MAXSCFCY          IQCMSC          10D- 15           cycles  
       QC_RTRUST            IQCRTR          10D-  0           x 10-3  
       QC_SKIPSCF           IQCSKI         OFF         [  0]    ***   
       QC_START             IQCSTA          10D-  1             ***   
       QRHFGUESS            IQGUES         OFF         [  0]    ***   
       QUARTIC              IQUART         OFF         [  0]    ***   
       RAMAN_INT            IRAMIN         OFF         [  0]    ***   
       RAMAN_ORB            IRAMRE         UNRELAXED   [  0]    ***   
       RDO                  IRDOFM         ON          [  1]    ***   
       REDUCE_REPR          REDREP         Ir          [  0]    ***   
       REFERENCE            IREFNC         RHF         [  0]    ***   
       RELATIVIST           IRELAT         OFF         [  0]    ***   
       RELAX_DENS           IRDENS         ON          [  1]    ***   
       RESET_FLAGS          IRESET         OFF         [  0]    ***   
       RESTART_CC           ICCRES         OFF         [  0]    ***   
       ROT_EVEC             ROTVEC              0               ***   
       SAVE_INTS            ISVINT         OFF         [  0]    ***   
       SCALE_ON             ISTCRT              0               ***   
       SCF_CONV             ISCFCV          10D-  8             ***   
       SCF_DAMPING          IDAMP             100             x 10-3  
       SCF_EXPORDE          IRPPOR              6               ***   
       SCF_EXPSTAR          IRPPLS              8               ***   
       SCF_EXTRAPO          IRPP           ON          [  1]    ***   
       SCF_MAXCYC           ISCFCY            500              cycles 
       SCF_NOSTOP           ISCFST         OFF         [  0]    ***   
       SCF_PRINT            ISCFPR              0               ***   
       SCF_PROG             ISCFPR         SCF         [  0]    ***   
       SD_FIELD             IFINSD              0             x 10-6  
       SOPERT               IPERSO         OFF         [  0]    ***   
       SPHERICAL            IDFGHI         ON          [  1]    ***   
       SPINORBIT            ISOCAL         OFF         [  0]    ***   
       SPINROTATIO          ISRCON         OFF         [  0]    ***   
       SPIN_FLIP            ISPFLP         OFF         [  0]    ***   
       SPIN_ORBIT           ISPORB         OFF         [  0]    ***   
       SPIN_SCAL            ISCSMP         OFF         [  0]    ***   
       STEEPSCALE           ISTPSC              1000          x 10-3  
       SUBGROUP             ISUBGP         DEFAULT     [  0]    ***   
       SUBGRPAXIS           ISBXYZ         X           [  0]    ***   
       SYMMETRY             ISYM           ON          [  0]    ***   
       SYM_CHECK            ISYMCK         OVERRIDE    [  1]    ***   
       T3_EXTRAPOL          IT3EXT         OFF         [  0]    ***   
       T4_EXTRAPOL          IT4EXP         OFF         [  0]    ***   
       TAMP_SUM             IEVERY              5               ***   
       TESTSUITE            ITESTS         OFF         [  0]    ***   
       THERMOCH             ITHERM         OFF         [  0]    ***   
       TOL_CHOLESK          ITOLCH          10D-  4             ***   
       TRANGRAD             IRESRM         OFF         [  0]    ***   
       TRANS_INV            ITRAIN         USE         [  0]    ***   
       TREAT_PERT           ITREAT         SIMULTANEOUS[  0]    ***   
       TRIP_ALGORI          ITRALG         NORMAL      [  0]    ***   
       UIJ_THRESHO          IUIJTH              1               ***   
       UNITS                IUNITS         ANGSTROM    [  0]    ***   
       UNOS                 IUNOS          OFF         [  0]    ***   
       UPDATE_HESS          IHUPDT         ON          [  1]    ***   
       VIBPHASE             ISETPH         STANDARD    [  0]    ***   
       VIBRATION            IVIB           NO          [  0]    ***   
       VIB_ALGORIT          IGEALG         STANDARD    [  0]    ***   
       VNATORB              IVNORB         OFF         [  0]    ***   
       VTRAN                IVTRAN         FULL/PARTIAL[  0]    ***   
       XFIELD               IXEFLD              0             x 10-6  
       XFORM_TOL            IXFTOL          10D- 11             ***   
       YFIELD               IYEFLD              0             x 10-6  
       ZFIELD               IZEFLD              0             x 10-6  
       ZSCALE_EXP           IZEXPS         OFF         [  0]    ***   
    -------------------------------------------------------------------
  11 entries found in Z-matrix 
   Job Title : Optimization on FeCO5                                                           
   There are  9 unique internal coordinates.
   Of these,  4 will be optimized.
   User supplied Z-matrix: 
--------------------------------------------------------------------------------
       SYMBOL    BOND      LENGTH    ANGLE     ANGLE     DIHED     ANGLE
                  TO      (ANGST)    WRT      (DEG)      WRT      (DEG)
--------------------------------------------------------------------------------
        Fe   
        C          1         rFeCA
        C          1         rFeCE      2        a90  
        C          1         rFeCE      3        a120       2        dn90 
        C          1         rFeCE      3        a120       2        d90  
        C          1         rFeCA      3        a90        4        dn90 
        O          1         rFeOA      3        a90        4        d90  
        O          1         rFeOA      3        a90        4        dn90 
        O          1         rFeOE      2        a90        3        d0   
        O          1         rFeOE      2        a90        4        d0   
        O          1         rFeOE      2        a90        5        d0   
                  *Initial values for internal coordinates* 
                      Name             Value
                        rFeCA           1.8295658558
                        rFeCE           1.8304279377
                        a90            90.0000000000
                        a120          120.0000000000
                        dn90          -90.0000000000
                        d90            90.0000000000
                        rFeOA           2.9838000837
                        rFeOE           2.9875299886
                        d0              0.0000000000
--------------------------------------------------------------------------------
  filter applied 
  filter applied 
   Rotational constants (in cm-1): 
          0.0263568807             0.0263568807             0.0307118455
   Rotational constants (in MHz): 
        790.1595147912           790.1595147912           920.7180943059
********************************************************************************
   The full molecular point group is D3h .
   The largest Abelian subgroup of the full molecular point group is C2v .
   The computational point group is C2v .
********************************************************************************
--------------------------------------------------------------------------------
   Analysis of internal coordinates specified by Z-matrix 
--------------------------------------------------------------------------------
   *The nuclear repulsion energy is  794.324169968254409 a.u.
   *There are   4 degrees of freedom within the tot. symm. molecular subspace.
   *Z-matrix requests optimization of   4 coordinates.
   *The optimization is unconstrained and your Z-matrix is great.
--------------------------------------------------------------------------------


 ----------------------------------------------------------------
         Coordinates used in calculation (QCOMP) 
 ----------------------------------------------------------------
 Z-matrix   Atomic            Coordinates (in bohr)
  Symbol    Number           X              Y              Z
 ----------------------------------------------------------------
     FE       26         0.00000000     0.00000000     0.00000000
     C         6         0.00000000    -3.45737912     0.00000000
     C         6        -2.99558899     0.00000000    -1.72950411
     C         6        -0.00000000     0.00000000     3.45900822
     C         6         2.99558899    -0.00000000    -1.72950411
     C         6        -0.00000000     3.45737912     0.00000000
     O         8        -0.00000000    -5.63856615     0.00000000
     O         8        -0.00000000     5.63856615     0.00000000
     O         8        -4.88924571    -0.00000000    -2.82280733
     O         8        -0.00000000    -0.00000000     5.64561465
     O         8         4.88924571    -0.00000000    -2.82280733
 ----------------------------------------------------------------

   Interatomic distance matrix (Angstroms) 

                 FE            C             C             C             C    
                [ 1]        [ 2]        [ 3]        [ 4]        [ 5]
  FE   [ 1]     0.00000
  C    [ 2]     1.82957     0.00000
  C    [ 3]     1.83043     2.58801     0.00000
  C    [ 4]     1.83043     2.58801     3.17039     0.00000
  C    [ 5]     1.83043     2.58801     3.17039     3.17039     0.00000
  C    [ 6]     1.82957     3.65913     2.58801     2.58801     2.58801
  O    [ 7]     2.98380     1.15423     3.50050     3.50050     3.50050
  O    [ 8]     2.98380     4.81337     3.50050     3.50050     3.50050
  O    [ 9]     2.98753     3.50323     1.15710     4.21239     4.21239
  O    [10]     2.98753     3.50323     4.21239     1.15710     4.21239
  O    [11]     2.98753     3.50323     4.21239     4.21239     1.15710

                 C             O             O             O             O    
                [ 6]        [ 7]        [ 8]        [ 9]        [10]
  C    [ 6]     0.00000
  O    [ 7]     4.81337     0.00000
  O    [ 8]     1.15423     5.96760     0.00000
  O    [ 9]     3.50323     4.22237     4.22237     0.00000
  O    [10]     3.50323     4.22237     4.22237     5.17455     0.00000
  O    [11]     3.50323     4.22237     4.22237     5.17455     5.17455

                 O    
                [11]
  O    [11]     0.00000
 rotcon2
   Rotational constants (in cm-1): 
          0.0263568807             0.0307118455             0.0263568807
   Rotational constants (in MHz): 
        790.1595147912           920.7180943059           790.1595147912
  ECPDATA file not present.   Using default ECPDATA. 
  There are  19 frozen-core orbitals.
  There are  289 basis functions.
 @CHECKOUT-I, Total execution time (CPU/WALL):        1.32/       0.52 seconds.
--executable xjoda finished with status     0 in        0.56 seconds (walltime).
 --invoking executable--
/opt/cfour/2.1/bin/xvmol
 SERIAL VERSION OF MOLECULE STARTED
********************************************************************************
                    INPUT FROM MOL FILE
********************************************************************************
INTGRL        1    0    1    0    0    0    0    0    0                         
         *** CFOUR Program System (Release V0.1) ***                            
Optimization on FeCO5                                                           
    7    2 X  Y       0.10E-08              0    0                              
   9999.00      3.00                                                            
         26.00000000    1    4    1    1    1    1                              
FE#1   0.000000000000000   0.000000000000000   0.000000000000000                
   21    7                                                                      
   4316265.0000000000        8.0488029999999998E-006  -4.1559539999999997E-006  
   646342.40000000002        6.2583059999999998E-005  -3.2314010000000003E-005  
   147089.70000000001        3.2902389999999999E-004  -1.6995250000000000E-004  
   41661.519999999997        1.3873550000000001E-003  -7.1713690000000004E-004  
   13590.770000000000        5.0232560000000002E-003  -2.6036250000000000E-003  
   4905.7500000000000        1.6101399999999998E-002  -8.3991090000000001E-003  
   1912.7460000000001        4.5900339999999998E-002  -2.4341089999999999E-002  
   792.60429999999997       0.11361540000000001       -6.2519480000000002E-002  
   344.80650000000003       0.22838690000000000      -0.13659289999999999       
   155.89990000000000       0.32211590000000001      -0.23127070000000000       
   72.230909999999994       0.23836610000000000      -0.23837340000000001       
   32.725059999999999        7.4046669999999995E-002   3.1238370000000001E-002  
   15.667619999999999        9.2141970000000004E-002  0.50868179999999996      -
   7.5034830000000001        9.3397900000000006E-002  0.49876949999999998      -
   3.3122229999999999        1.5739650000000001E-002   9.0335520000000002E-002  
   1.5584709999999999       -4.1866819999999998E-004  -6.0053370000000003E-003  
  0.68391400000000002        5.3763179999999999E-005   2.3124539999999999E-004  
  0.14675700000000000       -3.8166539999999997E-005  -5.6436799999999999E-004  
   7.0583000000000007E-002   4.3196030000000000E-005   4.9922599999999997E-004  
   3.1448999999999998E-002  -3.4010190000000000E-006  -1.0152930000000000E-004  
   1.4010000000000000E-002   0.0000000000000000        0.0000000000000000       
   17    6                                                                      
   17745.689999999999        4.1000000000000000E-005  -1.5000000000000000E-005  
   4200.7209999999995        3.6900000000000002E-004  -1.2999999999999999E-004  
   1364.4290000000001        2.1289999999999998E-003  -7.5100000000000004E-004  
   522.08060000000000        9.3690000000000006E-003  -3.3289999999999999E-003  
   221.45949999999999        3.3097000000000001E-002  -1.1912000000000001E-002  
   100.90960000000000        9.4431000000000001E-002  -3.4932999999999999E-002  
   48.401150000000001       0.20807700000000001       -7.9989000000000005E-002  
   23.985360000000000       0.33233299999999999      -0.13463600000000001       
   12.182499999999999       0.33298699999999998      -0.13859800000000000       
   6.2422979999999999       0.15684300000000001        3.0277999999999999E-002  
   3.1109439999999999        2.1548999999999999E-002  0.33321600000000001      -
   1.5099579999999999       -2.0950000000000001E-003  0.45615299999999998      -
  0.71084499999999995       -1.7390000000000001E-003  0.28505100000000000      -
  0.27318999999999999       -2.9999999999999997E-004   4.6143999999999998E-002  
  0.10423300000000001        2.9000000000000000E-005  -3.2490000000000002E-003  
   3.8290999999999999E-002  -1.1000000000000000E-005   1.3569999999999999E-003  
   1.4069999999999999E-002   0.0000000000000000        0.0000000000000000       
    9    4                                                                      
   113.34399999999999        3.5300000000000002E-003  -3.8899999999999998E-003  
   33.641399999999997        2.5784000000000001E-002  -2.8441999999999999E-002  
   12.331000000000000        9.9118999999999999E-002 -0.11242900000000000       
   4.9947800000000004       0.23907300000000001      -0.27425699999999997       
   2.0728000000000000       0.35719899999999999      -0.31554599999999999       
  0.83075299999999996       0.36218800000000001        5.7109000000000000E-002  
  0.30917800000000001       0.23646100000000000       0.56360399999999999       
  0.10013000000000000        6.0117999999999998E-002  0.38463700000000001       
   3.2430000000000000E-002   0.0000000000000000        0.0000000000000000       
    3    2                                                                      
   3.2242999999999999       0.42224899999999999        0.0000000000000000       
  0.77580000000000005       0.77146800000000004        0.0000000000000000       
  0.27489999999999998        0.0000000000000000        1.0000000000000000       
          6.00000000    1    3    1    1    1                                   
C #2   0.000000000000000  -3.457379119003190   0.000000000000000                
   10    4                                                                      
   6665.0000000000000        6.9200000000000002E-004  -1.4600000000000000E-004  
   1000.0000000000000        5.3290000000000004E-003  -1.1540000000000001E-003  
   228.00000000000000        2.7077000000000000E-002  -5.7250000000000001E-003  
   64.709999999999994       0.10171800000000000       -2.3311999999999999E-002  
   21.059999999999999       0.27473999999999998       -6.3954999999999998E-002  
   7.4950000000000001       0.44856400000000002      -0.14998100000000000       
   2.7970000000000002       0.28507399999999999      -0.12726199999999999       
  0.52149999999999996        1.5204000000000001E-002  0.54452900000000004       
  0.15959999999999999       -3.1909999999999998E-003  0.58049600000000001       
   4.6899999999999997E-002   0.0000000000000000        0.0000000000000000       
    5    3                                                                      
   9.4390000000000001        3.8108999999999997E-002   0.0000000000000000       
   2.0019999999999998       0.20948000000000000        0.0000000000000000       
  0.54559999999999997       0.50855700000000004        0.0000000000000000       
  0.15170000000000000       0.46884199999999998        1.0000000000000000       
   4.0410000000000001E-002   0.0000000000000000        0.0000000000000000       
    2    2                                                                      
  0.55000000000000004        1.0000000000000000        0.0000000000000000       
  0.15100000000000000        0.0000000000000000        1.0000000000000000       
          6.00000000    1    3    1    1    1                                   
C #3  -2.995588988735656   0.000000000000000  -1.729504109028010                
   10    4                                                                      
   6665.0000000000000        6.9200000000000002E-004  -1.4600000000000000E-004  
   1000.0000000000000        5.3290000000000004E-003  -1.1540000000000001E-003  
   228.00000000000000        2.7077000000000000E-002  -5.7250000000000001E-003  
   64.709999999999994       0.10171800000000000       -2.3311999999999999E-002  
   21.059999999999999       0.27473999999999998       -6.3954999999999998E-002  
   7.4950000000000001       0.44856400000000002      -0.14998100000000000       
   2.7970000000000002       0.28507399999999999      -0.12726199999999999       
  0.52149999999999996        1.5204000000000001E-002  0.54452900000000004       
  0.15959999999999999       -3.1909999999999998E-003  0.58049600000000001       
   4.6899999999999997E-002   0.0000000000000000        0.0000000000000000       
    5    3                                                                      
   9.4390000000000001        3.8108999999999997E-002   0.0000000000000000       
   2.0019999999999998       0.20948000000000000        0.0000000000000000       
  0.54559999999999997       0.50855700000000004        0.0000000000000000       
  0.15170000000000000       0.46884199999999998        1.0000000000000000       
   4.0410000000000001E-002   0.0000000000000000        0.0000000000000000       
    2    2                                                                      
  0.55000000000000004        1.0000000000000000        0.0000000000000000       
  0.15100000000000000        0.0000000000000000        1.0000000000000000       
          6.00000000    1    3    1    1    1                                   
C #4  -0.000000000000001   0.000000000000000   3.459008218056020                
   10    4                                                                      
   6665.0000000000000        6.9200000000000002E-004  -1.4600000000000000E-004  
   1000.0000000000000        5.3290000000000004E-003  -1.1540000000000001E-003  
   228.00000000000000        2.7077000000000000E-002  -5.7250000000000001E-003  
   64.709999999999994       0.10171800000000000       -2.3311999999999999E-002  
   21.059999999999999       0.27473999999999998       -6.3954999999999998E-002  
   7.4950000000000001       0.44856400000000002      -0.14998100000000000       
   2.7970000000000002       0.28507399999999999      -0.12726199999999999       
  0.52149999999999996        1.5204000000000001E-002  0.54452900000000004       
  0.15959999999999999       -3.1909999999999998E-003  0.58049600000000001       
   4.6899999999999997E-002   0.0000000000000000        0.0000000000000000       
    5    3                                                                      
   9.4390000000000001        3.8108999999999997E-002   0.0000000000000000       
   2.0019999999999998       0.20948000000000000        0.0000000000000000       
  0.54559999999999997       0.50855700000000004        0.0000000000000000       
  0.15170000000000000       0.46884199999999998        1.0000000000000000       
   4.0410000000000001E-002   0.0000000000000000        0.0000000000000000       
    2    2                                                                      
  0.55000000000000004        1.0000000000000000        0.0000000000000000       
  0.15100000000000000        0.0000000000000000        1.0000000000000000       
          8.00000000    1    3    1    1    1                                   
O #5  -0.000000000000000  -5.638566150538215   0.000000000000000                
   10    4                                                                      
   11720.000000000000        7.1000000000000002E-004  -1.6000000000000001E-004  
   1759.0000000000000        5.4700000000000000E-003  -1.2630000000000000E-003  
   400.80000000000001        2.7837000000000001E-002  -6.2670000000000000E-003  
   113.70000000000000       0.10480000000000000       -2.5715999999999999E-002  
   37.030000000000001       0.28306199999999998       -7.0924000000000001E-002  
   13.270000000000000       0.44871899999999998      -0.16541100000000000       
   5.0250000000000004       0.27095200000000003      -0.11695500000000000       
   1.0129999999999999        1.5458000000000000E-002  0.55736799999999997       
  0.30230000000000001       -2.5850000000000001E-003  0.57275900000000002       
   7.8960000000000002E-002   0.0000000000000000        0.0000000000000000       
    5    3                                                                      
   17.699999999999999        4.3018000000000001E-002   0.0000000000000000       
   3.8540000000000001       0.22891300000000001        0.0000000000000000       
   1.0460000000000000       0.50872799999999996        0.0000000000000000       
  0.27529999999999999       0.46053100000000002        1.0000000000000000       
   6.8559999999999996E-002   0.0000000000000000        0.0000000000000000       
    2    2                                                                      
   1.1850000000000001        1.0000000000000000        0.0000000000000000       
  0.33200000000000002        0.0000000000000000        1.0000000000000000       
          8.00000000    1    3    1    1    1                                   

Running with 32 threads/proc

O #6  -4.889245707483187  -0.000000000000000  -2.822807325349641                
   10    4                                                                      
   11720.000000000000        7.1000000000000002E-004  -1.6000000000000001E-004  
   1759.0000000000000        5.4700000000000000E-003  -1.2630000000000000E-003  
   400.80000000000001        2.7837000000000001E-002  -6.2670000000000000E-003  
   113.70000000000000       0.10480000000000000       -2.5715999999999999E-002  
   37.030000000000001       0.28306199999999998       -7.0924000000000001E-002  
   13.270000000000000       0.44871899999999998      -0.16541100000000000       
   5.0250000000000004       0.27095200000000003      -0.11695500000000000       
   1.0129999999999999        1.5458000000000000E-002  0.55736799999999997       
  0.30230000000000001       -2.5850000000000001E-003  0.57275900000000002       
   7.8960000000000002E-002   0.0000000000000000        0.0000000000000000       
    5    3                                                                      
   17.699999999999999        4.3018000000000001E-002   0.0000000000000000       
   3.8540000000000001       0.22891300000000001        0.0000000000000000       
   1.0460000000000000       0.50872799999999996        0.0000000000000000       
  0.27529999999999999       0.46053100000000002        1.0000000000000000       
   6.8559999999999996E-002   0.0000000000000000        0.0000000000000000       
    2    2                                                                      
   1.1850000000000001        1.0000000000000000        0.0000000000000000       
  0.33200000000000002        0.0000000000000000        1.0000000000000000       
          8.00000000    1    3    1    1    1                                   
O #7  -0.000000000000000  -0.000000000000000   5.645614650699281                
   10    4                                                                      
   11720.000000000000        7.1000000000000002E-004  -1.6000000000000001E-004  
   1759.0000000000000        5.4700000000000000E-003  -1.2630000000000000E-003  
   400.80000000000001        2.7837000000000001E-002  -6.2670000000000000E-003  
   113.70000000000000       0.10480000000000000       -2.5715999999999999E-002  
   37.030000000000001       0.28306199999999998       -7.0924000000000001E-002  
   13.270000000000000       0.44871899999999998      -0.16541100000000000       
   5.0250000000000004       0.27095200000000003      -0.11695500000000000       
   1.0129999999999999        1.5458000000000000E-002  0.55736799999999997       
  0.30230000000000001       -2.5850000000000001E-003  0.57275900000000002       
   7.8960000000000002E-002   0.0000000000000000        0.0000000000000000       
    5    3                                                                      
   17.699999999999999        4.3018000000000001E-002   0.0000000000000000       
   3.8540000000000001       0.22891300000000001        0.0000000000000000       
   1.0460000000000000       0.50872799999999996        0.0000000000000000       
  0.27529999999999999       0.46053100000000002        1.0000000000000000       
   6.8559999999999996E-002   0.0000000000000000        0.0000000000000000       
    2    2                                                                      
   1.1850000000000001        1.0000000000000000        0.0000000000000000       
  0.33200000000000002        0.0000000000000000        1.0000000000000000       
FINISH                                                                          

********************************************************************************
 ONE- AND TWO-ELECTRON INTEGRALS OVER SYMMETRY-ADAPTED AOS ARE CALCULATED.

  SPHERICAL HARMONICS ARE USED.
  
  INTEGRALS LESS THAN  0.10E-13 ARE NEGLECTED.

  NUCLEAR REPULSION ENERGY :  794.3241699683 A.U.
  @MOLECU-I, ONE ELECTRON INTEGRALS (CPU/WALL):        1.15/       0.12 SECONDS.
  @TWOEL-I,   24247647 INTEGRALS OF SYMMETRY TYPE  I I I I
  @TWOEL-I,   83722971 INTEGRALS OF SYMMETRY TYPE  I J I J
  @TWOEL-I,   43036097 INTEGRALS OF SYMMETRY TYPE  I I J J
  @TWOEL-I,   58849131 INTEGRALS OF SYMMETRY TYPE  I J K L
  @TWOEL-I, TOTAL NUMBER OF 2-E INTEGRALS  209855846.
  @MOLECU-I, TWO ELECTRON INTEGRALS (CPU/WALL):     1215.98/      57.22 SECONDS.
 @CHECKOUT-I, Total execution time (CPU/WALL):     1217.22/      57.35 seconds.
--executable xvmol finished with status     0 in       57.38 seconds (walltime).
 --invoking executable--
/opt/cfour/2.1/bin/xvmol2ja
 @GETMEM-I,  Allocated   30517 MB of main memory.
 @CHECKOUT-I, Total execution time (CPU/WALL):        0.63/       0.04 seconds.
--executable xvmol2ja finished with status     0 in        0.08 seconds (walltime).
 --invoking executable--
/opt/cfour/2.1/bin/xvscf
  There are  289 functions in the AO basis.

  There are 4 irreducible representations.

       Irrep        # of functions
         1                111
         2                 70
         3                 70
         4                 38


  Parameters for SCF calculation: 
        SCF reference function:  RHF  
  Maximum number of iterations:  500
     Full symmetry point group: D3h 
     Computational point group: C2v 
        Initial density matrix: MOREAD                 
     SCF convergence tolerance: 10**(- 8)
  DIIS convergence acceleration:  ON
          Latest start for DIIS:   8
                     DIIS order:   6

     Alpha population by irrep:  23   11   11    3
      Beta population by irrep:  23   11   11    3


  Memory information:    3377898 words required.
  Fock matrices are constructed from AO integral file.
 @GETMEM-I,  Allocated      25 MB of main memory.
  Initialization and symmetry analysis required      0.015 seconds.

 total no. of electrons in initial guess :   0.0000000000000000     
  --------------------------------------------------------------------
  Iteration         Total Energy            Largest Density Difference
  --------------------------------------------------------------------
       0           794.324169968254751              0.0000000000D+00
   current occupation vector 
    23 11 11  3
    23 11 11  3
  applying damping factor of   0.90000000000000002     
       1         -1338.455175133832199              0.8999722774D+04
   current occupation vector 
    23 11 11  3
    23 11 11  3
  applying damping factor of   0.90000000000000002     
       2         -1636.331104238449825              0.8075291172D+04
   current occupation vector 
    23 11 11  3
    23 11 11  3
  applying damping factor of   0.90000000000000002     
       3         -1468.660892725271879              0.4536065358D+04
   current occupation vector 
    23 11 11  3
    23 11 11  3
  applying damping factor of   0.90000000000000002     
       4         -1667.739677030255734              0.4852064164D+04
   current occupation vector 
    23 11 11  3
    23 11 11  3
  applying damping factor of   0.90000000000000002     
       5         -1470.130703084877496              0.4798903118D+04
   current occupation vector 
    23 11 11  3
    23 11 11  3
  applying damping factor of   0.90000000000000002     
       6         -1667.142783023185075              0.4800519849D+04
   current occupation vector 
    23 11 11  3
    23 11 11  3
  applying damping factor of   0.90000000000000002     
       7         -1470.194258918550531              0.4800050118D+04
   current occupation vector 
    23 11 11  3
    23 11 11  3
       8         -1613.090864040726046              0.4799665969D+04
   current occupation vector 
    23 11 11  3
    23 11 11  3
       9         -1715.921742781964440              0.1659284121D+04
   current occupation vector 
    23 11 11  3
    23 11 11  3
      10         -1716.055720901687891              0.4582756970D-01
   current occupation vector 
    23 11 11  3
    23 11 11  3
      11         -1716.305685504199573              0.7449075519D+00
   current occupation vector 
    23 11 11  3
    23 11 11  3
      12         -1716.305496407402188              0.8873500834D-02
   current occupation vector 
    23 11 11  3
    23 11 11  3
      13         -1444.534596634176978              0.5816586955D+04
   current occupation vector 
    23 11 11  3
    23 11 11  3
      14         -1375.516148000826433              0.1767950294D+04
   current occupation vector 
    23 11 11  3
    23 11 11  3
      15         -1496.945469128784225              0.1751349176D+04
   current occupation vector 
    23 11 11  3
    23 11 11  3
      16         -1525.373412173169072              0.1057570504D+04
   current occupation vector 
    23 11 11  3
    23 11 11  3
      17         -1552.893317899630802              0.9010877451D+03
   current occupation vector 
    23 11 11  3
    23 11 11  3
      18         -1581.073139213077411              0.5989827734D+03
   current occupation vector 
    23 11 11  3
    23 11 11  3
      19         -1268.393583119230243              0.4860712679D+04
   current occupation vector 
    23 11 11  3
    23 11 11  3
      20         -1413.837270026610440              0.5728306367D+04
   current occupation vector 
    23 11 11  3
    23 11 11  3
      21         -1371.085069536537503              0.1287650243D+04
   current occupation vector 
    23 11 11  3
    23 11 11  3
      22         -1485.339043463986400              0.1735203933D+04
   current occupation vector 
    23 11 11  3
    23 11 11  3
      23         -1467.423212732459433              0.8795523377D+02
   current occupation vector 
    23 11 11  3
    23 11 11  3
      24         -1472.430999131365297              0.3160143065D+02
   current occupation vector 
    23 11 11  3
    23 11 11  3
      25         -1458.933758589922945              0.1439232368D+03
   current occupation vector 
    23 11 11  3
    23 11 11  3
      26         -1259.433170510415948              0.5302413058D+04
   current occupation vector 
    23 11 11  3
    23 11 11  3
      27         -1538.175522272298622              0.5044688987D+04
   current occupation vector 
    23 11 11  3
    23 11 11  3
      28         -1359.714780345536383              0.2223959892D+04
   current occupation vector 
    23 11 11  3
    23 11 11  3
      29         -1649.472012508187618              0.3019413911D+04
   current occupation vector 
    23 11 11  3
    23 11 11  3
      30         -1724.397864843990192              0.2502754452D+04
   current occupation vector 
    23 11 11  3
    23 11 11  3
      31         -1759.675797282442545              0.1033021177D+04
   current occupation vector 
    23 11 11  3
    23 11 11  3
      32         -1791.175045792855144              0.6101393793D+03
   current occupation vector 
    23 11 11  3
    23 11 11  3
      33         -1632.317521501191550              0.1274454225D+04
   current occupation vector 
    23 11 11  3
    23 11 11  3
      34         -1784.490129088395406              0.1274710760D+04
   current occupation vector 
    23 11 11  3
    23 11 11  3
      35         -1739.877647741579040              0.3487697542D+03
   current occupation vector 
    23 11 11  3
    23 11 11  3
      36         -1727.496185139952559              0.1782645273D+03
   current occupation vector 
    23 11 11  3
    23 11 11  3
      37         -1709.011241965376485              0.3626583777D+03
   current occupation vector 
    23 11 11  3
    23 11 11  3
      38         -1717.274423856900285              0.1923162221D+03
   current occupation vector 
    23 11 11  3
    23 11 11  3
      39         -1715.057548650466742              0.1613646576D+03
   current occupation vector 
    23 11 11  3
    23 11 11  3
      40         -1600.190923895952892              0.8011231436D+03
   current occupation vector 
    23 11 11  3
    23 11 11  3
      41         -1755.160062413463493              0.7138772729D+03
   current occupation vector 
    23 11 11  3
    23 11 11  3
      42         -1784.299282860606127              0.6629543739D+03
   current occupation vector 
    23 11 11  3
    23 11 11  3
      43         -1800.694877854045899              0.9917704217D+02
   current occupation vector 
    23 11 11  3
    23 11 11  3
      44         -1810.924364886861895              0.1797879376D+02
   current occupation vector 
    23 11 11  3
    23 11 11  3
      45         -1822.599312795040987              0.6467429578D+01
   current occupation vector 
    23 11 11  3
    23 11 11  3
      46         -1825.230593331910768              0.5629908218D+01
   current occupation vector 
    23 11 11  3
    23 11 11  3
      47         -1825.740106089910569              0.3083912286D+01
   current occupation vector 
    23 11 11  3
    23 11 11  3
      48         -1825.989238709588790              0.1523501838D+01
   current occupation vector 
    23 11 11  3
    23 11 11  3
      49         -1826.006783966112380              0.1626128734D+00
   current occupation vector 
    23 11 11  3
    23 11 11  3
      50         -1826.010836125118203              0.7772002990D-01
   current occupation vector 
    23 11 11  3
    23 11 11  3
      51         -1826.013342142317015              0.6594663538D-01
   current occupation vector 
    23 11 11  3
    23 11 11  3
      52         -1826.014685262467538              0.4673920006D-01
   current occupation vector 
    23 11 11  3
    23 11 11  3
      53         -1826.015446508145487              0.3622005671D-01
   current occupation vector 
    23 11 11  3
    23 11 11  3
      54         -1826.015740894719329              0.2464756046D-01
   current occupation vector 
    23 11 11  3
    23 11 11  3
      55         -1826.015885146689925              0.1744799802D-01
   current occupation vector 
    23 11 11  3
    23 11 11  3
      56         -1826.015917974420063              0.1992600896D-01
   current occupation vector 
    23 11 11  3
    23 11 11  3
      57         -1826.015932670899474              0.6510509632D-02
   current occupation vector 
    23 11 11  3
    23 11 11  3
      58         -1826.015949701655245              0.7891251820D-02
   current occupation vector 
    23 11 11  3
    23 11 11  3
      59         -1826.015966650190876              0.7663196558D-02
   current occupation vector 
    23 11 11  3
    23 11 11  3
      60         -1826.015977363269030              0.8480892909D-02
   current occupation vector 
    23 11 11  3
    23 11 11  3
      61         -1826.015984075570941              0.5671862541D-02
   current occupation vector 
    23 11 11  3
    23 11 11  3
      62         -1826.015988245632343              0.4667506897D-02
   current occupation vector 
    23 11 11  3
    23 11 11  3
      63         -1826.015991610263882              0.5189321927D-02
   current occupation vector 
    23 11 11  3
    23 11 11  3
      64         -1826.015993110102045              0.3831354726D-02
   current occupation vector 
    23 11 11  3
    23 11 11  3
      65         -1826.015993339884517              0.2025373454D-02
   current occupation vector 
    23 11 11  3
    23 11 11  3
      66         -1826.015993426639398              0.5412772686D-03
   current occupation vector 
    23 11 11  3
    23 11 11  3
      67         -1826.015993450143014              0.4384707056D-03
   current occupation vector 
    23 11 11  3
    23 11 11  3
      68         -1826.015993455297121              0.1042495410D-03
   current occupation vector 
    23 11 11  3
    23 11 11  3
      69         -1826.015993456354408              0.5072572340D-04
   current occupation vector 
    23 11 11  3
    23 11 11  3
      70         -1826.015993457050172              0.3177290781D-04
   current occupation vector 
    23 11 11  3
    23 11 11  3
      71         -1826.015993457365767              0.1793093504D-04
   current occupation vector 
    23 11 11  3
    23 11 11  3
      72         -1826.015993458143384              0.4009863315D-04
   current occupation vector 
    23 11 11  3
    23 11 11  3
      73         -1826.015993458339381              0.2661237929D-04
   current occupation vector 
    23 11 11  3
    23 11 11  3
      74         -1826.015993458632693              0.3725723817D-04
   current occupation vector 
    23 11 11  3
    23 11 11  3
      75         -1826.015993458927369              0.3410956548D-04
   current occupation vector 
    23 11 11  3
    23 11 11  3
      76         -1826.015993459057881              0.2595390521D-04
   current occupation vector 
    23 11 11  3
    23 11 11  3
      77         -1826.015993459173842              0.2580480602D-04
   current occupation vector 
    23 11 11  3
    23 11 11  3
      78         -1826.015993459205220              0.1294506471D-04
   current occupation vector 
    23 11 11  3
    23 11 11  3
      79         -1826.015993459212950              0.1380579851D-04
   current occupation vector 
    23 11 11  3
    23 11 11  3
      80         -1826.015993459219317              0.4108953798D-05
   current occupation vector 
    23 11 11  3
    23 11 11  3
      81         -1826.015993459221590              0.4954236799D-06
   current occupation vector 
    23 11 11  3
    23 11 11  3
      82         -1826.015993459212950              0.1111631334D-05
   current occupation vector 
    23 11 11  3
    23 11 11  3
      83         -1826.015993459207493              0.8145557846D-06
   current occupation vector 
    23 11 11  3
    23 11 11  3
      84         -1826.015993459228412              0.5685518933D-06
   current occupation vector 
    23 11 11  3
    23 11 11  3
      85         -1826.015993459205220              0.2900786300D-06
   current occupation vector 
    23 11 11  3
    23 11 11  3
      86         -1826.015993459219317              0.2372788810D-06
   current occupation vector 
    23 11 11  3
    23 11 11  3
      87         -1826.015993459183846              0.1604533475D-06
   current occupation vector 
    23 11 11  3
    23 11 11  3
      88         -1826.015993459200217              0.3478819948D-06
   current occupation vector 
    23 11 11  3
    23 11 11  3
      89         -1826.015993459200217              0.3339669159D-06
   current occupation vector 
    23 11 11  3
    23 11 11  3
      90         -1826.015993459228866              0.1617994925D-06
   current occupation vector 
    23 11 11  3
    23 11 11  3
      91         -1826.015993459228412              0.1946652040D-06
   current occupation vector 
    23 11 11  3
    23 11 11  3
      92         -1826.015993459234323              0.8388678951D-07
   current occupation vector 
    23 11 11  3
    23 11 11  3
      93         -1826.015993459225228              0.3232399459D-07
   current occupation vector 
    23 11 11  3
    23 11 11  3
      94         -1826.015993459185665              0.2493981466D-07
   current occupation vector 
    23 11 11  3
    23 11 11  3
      95         -1826.015993459218862              0.2733444804D-07
   current occupation vector 
    23 11 11  3
    23 11 11  3
      96         -1826.015993459225228              0.2129610266D-07
   current occupation vector 
    23 11 11  3
    23 11 11  3
      97         -1826.015993459204765              0.1814240247D-07
   current occupation vector 
    23 11 11  3
    23 11 11  3
      98         -1826.015993459215679              0.1989731579D-07
   current occupation vector 
    23 11 11  3
    23 11 11  3
      99         -1826.015993459200672              0.2519244191D-07
   current occupation vector 
    23 11 11  3
    23 11 11  3
     100         -1826.015993459168840              0.1334823851D-07
   current occupation vector 
    23 11 11  3
    23 11 11  3
     101         -1826.015993459206584              0.1212675782D-07
   current occupation vector 
    23 11 11  3
    23 11 11  3
     102         -1826.015993459174751              0.1165885033D-07
   current occupation vector 
    23 11 11  3
    23 11 11  3

  SCF has converged.

 Density matrix saved to file den.dat
 total electron number:   96.000000000001052     
     E(SCF)=     -1826.015993459197944              0.7994750195D-08

  Eigenvector printing suppressed.

 @PUTMOS-I, Writing converged MOs to NEWMOS. 
 @PUTMOS-I, Symmetry   1 Full Blocks 27 Partial Blocksize   3
 @PUTMOS-I, Symmetry   2 Full Blocks 17 Partial Blocksize   2
 @PUTMOS-I, Symmetry   3 Full Blocks 17 Partial Blocksize   2
 @PUTMOS-I, Symmetry   4 Full Blocks  9 Partial Blocksize   2
 @PUTFOCK-I, Writing converged Fock matrix to NEWFOCK. 
 @PUTFOCK-I, Symmetry   1 Full Blocks 27 Partial Blocksize   3
 @PUTFOCK-I, Symmetry   2 Full Blocks 17 Partial Blocksize   2
 @PUTFOCK-I, Symmetry   3 Full Blocks 17 Partial Blocksize   2
 @PUTFOCK-I, Symmetry   4 Full Blocks  9 Partial Blocksize   2



  ORBITAL EIGENVALUES (ALPHA)  (1H = 27.2113834 eV)

       MO #        E(hartree)               E(eV)           FULLSYM    COMPSYM
       ----   --------------------   --------------------   -------   ---------
    1     1        -261.3740567024       -7112.3496677411    A1'         A1 (1)
    2     2         -31.9504069667        -869.4147737559    A1'         A1 (1)
    3   182         -27.4362399896        -746.5780454119    A2''        B2 (3)
    4     3         -27.4254382800        -746.2841159496     E'         A1 (1)
    5   112         -27.4254382800        -746.2841159490     E'         B1 (2)
    6   183         -20.6955342677        -563.1541176263     E          B2 (3)
    7     4         -20.6955335864        -563.1540990867     E          A1 (1)
    8     5         -20.6718208048        -562.5088414943                A1 (1)
    9   113         -20.6718205692        -562.5088350856                B1 (2)
   10     6         -20.6718205692        -562.5088350836                A1 (1)
   11   184         -11.4176400694        -310.6897814511     E          B2 (3)
   12     7         -11.4176377318        -310.6897178426     E          A1 (1)
   13     8         -11.4023713881        -310.2742995117                A1 (1)
   14   114         -11.4023667927        -310.2741744627                B1 (2)
   15     9         -11.4023667926        -310.2741744611                A1 (1)
   16    10          -4.1343489568        -112.5013545727    A1'         A1 (1)
   17   185          -2.7232018080         -74.1020884741    A2''        B2 (3)
   18    11          -2.7104471658         -73.7550170135     E'         A1 (1)
   19   115          -2.7104471658         -73.7550170131     E'         B1 (2)
   20    12          -1.5314760797         -41.6735827713    A1'         A1 (1)
   21   186          -1.5313875964         -41.6711750188    A2''        B2 (3)
   22    13          -1.5087710771         -41.0557482428    A1'         A1 (1)
   23   116          -1.5085677142         -41.0502144564     E'         B1 (2)
   24    14          -1.5085677142         -41.0502144547     E'         A1 (1)
   25    15          -0.8681450449         -23.6234276632    A1'         A1 (1)
   26   187          -0.8310722955         -22.6146268653    A2''        B2 (3)
   27   117          -0.8114421252         -22.0804627764     E'         B1 (2)
   28    16          -0.8114421252         -22.0804627749     E'         A1 (1)
   29    17          -0.8110328491         -22.0693258078    A1'         A1 (1)
   30    18          -0.7321749403         -19.9234930175    A1'         A1 (1)
   31   252          -0.6718915812         -18.2830994199     E''        A2 (4)
   32   188          -0.6718915812         -18.2830994195     E''        B2 (3)
   33   189          -0.6699303675         -18.2297320813    A2''        B2 (3)
   34   118          -0.6685595595         -18.1924304982     E'         B1 (2)
   35    19          -0.6685595595         -18.1924304980     E'         A1 (1)
   36    20          -0.6468726229         -17.6022989523     E'         A1 (1)
   37   119          -0.6468726228         -17.6022989508     E'         B1 (2)
   38   120          -0.6361745828         -17.3111904813    A2'         B1 (2)
   39   253          -0.6295807451         -17.1317630365     E''        A2 (4)
   40   190          -0.6295807451         -17.1317630353     E''        B2 (3)
   41    21          -0.6257592204         -17.0277740636     E'         A1 (1)
   42   121          -0.6257592204         -17.0277740636     E'         B1 (2)
   43    22          -0.6078999084         -16.5417974768    A1'         A1 (1)
   44   191          -0.6047262439         -16.4554376758    A2''        B2 (3)
   45   254          -0.4843845081         -13.1807725627     E''        A2 (4)
   46   192          -0.4843845081         -13.1807725627     E''        B2 (3)
   47    23          -0.3493138441          -9.5053129386     E'         A1 (1)
   48   122          -0.3493138438          -9.5053129318     E'         B1 (2)
  +++++++++++++++++++++++++++++++++++++++++++++++++++++++++++++++++++++++++++++
   49    24           0.0216275179           0.5885146829    A1'         A1 (1)
   50   193           0.0288082971           0.7839136163    A2''        B2 (3)
   51   123           0.0301632478           0.8207836995     E'         B1 (2)
   52    25           0.0301632478           0.8207836995     E'         A1 (1)
   53    26           0.0798687415           2.1733389463     E'         A1 (1)
   54   124           0.0798687415           2.1733389475     E'         B1 (2)
   55   255           0.0803247251           2.1857468901     E''        A2 (4)
   56   194           0.0803247251           2.1857468904     E''        B2 (3)
   57    27           0.0817431994           2.2243455403    A1'         A1 (1)
   58    28           0.0911406850           2.4800641235    A1'         A1 (1)
   59   195           0.1001043188           2.7239769977     E''        B2 (3)
   60   256           0.1001043188           2.7239769978     E''        A2 (4)
   61   196           0.1004715238           2.7339691542    A2''        B2 (3)
   62    29           0.1086925480           2.9576745956     E'         A1 (1)
   63   125           0.1086925480           2.9576745969     E'         B1 (2)
   64    30           0.1232301776           3.3532636095     E'         A1 (1)
   65   126           0.1232301776           3.3532636096     E'         B1 (2)
   66   197           0.1290567308           3.5118121819    A2''        B2 (3)
   67   127           0.1294432060           3.5223287082    A2'         B1 (2)
   68   198           0.1302671878           3.5447503929    A2''        B2 (3)
   69    31           0.1360600865           3.7023831795     E'         A1 (1)
   70   128           0.1360600866           3.7023831813     E'         B1 (2)
   71    32           0.1362971264           3.7088333636    A1'         A1 (1)
   72    33           0.1436948250           3.9101349747     E'         A1 (1)
   73   129           0.1436948250           3.9101349750     E'         B1 (2)
   74   199           0.1438010698           3.9130260447     E''        B2 (3)
   75   257           0.1438010698           3.9130260448     E''        A2 (4)
   76   130           0.1509617569           4.1078782469    A2'         B1 (2)
   77    34           0.1749410773           4.7603887279    A1'         A1 (1)
   78    35           0.1794444199           4.8829309083     E'         A1 (1)
   79   131           0.1794444199           4.8829309087     E'         B1 (2)
   80   200           0.1827652583           4.9732955145     E''        B2 (3)
   81   258           0.1827652583           4.9732955146     E''        A2 (4)
   82   259           0.2047536168           5.5716291695     E''        A2 (4)
   83   201           0.2047536168           5.5716291698     E''        B2 (3)
   84   202           0.2074268418           5.6443713202    A2''        B2 (3)
   85    36           0.2214860666           6.0269422763    A1'         A1 (1)
   86    37           0.2332656548           6.3474811661     E'         A1 (1)
   87   132           0.2332656548           6.3474811664     E'         B1 (2)
   88    38           0.2488223654           6.7708007827    A1'         A1 (1)
   89    39           0.2534170939           6.8958297024     E'         A1 (1)
   90   133           0.2534170941           6.8958297078     E'         B1 (2)
   91   203           0.2748506201           7.4790656025    A2''        B2 (3)
   92    40           0.2986584277           8.1269089810    A1'         A1 (1)
   93   134           0.3162640221           8.6059815603     E'         B1 (2)
   94    41           0.3162640222           8.6059815638     E'         A1 (1)
   95   204           0.3178903318           8.6502356982    A2''        B2 (3)
   96    42           0.3397068820           9.2438942097     E'         A1 (1)
   97   135           0.3397068820           9.2438942100     E'         B1 (2)
   98    43           0.3454388165           9.3998680769    A1'         A1 (1)
   99   260           0.3468827297           9.4391589539     E''        A2 (4)
  100   205           0.3468827298           9.4391589541     E''        B2 (3)
  101    44           0.3515383645           9.5658452166    A1'         A1 (1)
  102   206           0.3532867960           9.6134224556    A2''        B2 (3)
  103   136           0.3558329129           9.6827058180    A2'         B1 (2)
  104   207           0.3688282803          10.0363277428     E''        B2 (3)
  105   261           0.3688282803          10.0363277434     E''        A2 (4)
  106   137           0.3840680227          10.4510222180     E'         B1 (2)
  107    45           0.3840680228          10.4510222209     E'         A1 (1)
  108    46           0.4176666337          11.3652869024    A1'         A1 (1)
  109   208           0.4189813605          11.4010624370     E''        B2 (3)
  110   262           0.4189813605          11.4010624379     E''        A2 (4)
  111   138           0.4611062363          12.5473385837     E'         B1 (2)
  112    47           0.4611062364          12.5473385866     E'         A1 (1)
  113    48           0.4855786986          13.2132681383    A1'         A1 (1)
  114   263           0.4921308439          13.3915610751    A1''        A2 (4)
  115    49           0.5000758964          13.6077569466     E'         A1 (1)
  116   139           0.5000758967          13.6077569548     E'         B1 (2)
  117   209           0.5076405142          13.8136006616    A2''        B2 (3)
  118   264           0.5109167355          13.9027511760     E''        A2 (4)
  119   210           0.5109167355          13.9027511763     E''        B2 (3)
  120    50           0.5111946009          13.9103122757    A1'         A1 (1)
  121   140           0.5569055839          15.1541713607     E'         B1 (2)
  122    51           0.5569055839          15.1541713610     E'         A1 (1)
  123   141           0.5814471309          15.8219808062     E'         B1 (2)
  124    52           0.5814471311          15.8219808118     E'         A1 (1)
  125   211           0.5914742847          16.0948335334    A2''        B2 (3)
  126   212           0.6073287166          16.5262545577     E''        B2 (3)
  127   265           0.6073287166          16.5262545583     E''        A2 (4)
  128   142           0.6116242228          16.6431412236     E'         B1 (2)
  129    53           0.6116242230          16.6431412292     E'         A1 (1)
  130    54           0.6221349671          16.9291531160    A1'         A1 (1)
  131    55           0.6750329137          18.3685794215    A1'         A1 (1)
  132   213           0.6752167857          18.3735828329    A2''        B2 (3)
  133   143           0.6770711115          18.4240416033    A2'         B1 (2)
  134    56           0.6922798458          18.8378923036     E'         A1 (1)
  135   144           0.6922798461          18.8378923114     E'         B1 (2)
  136   266           0.7259888842          19.7551618726     E''        A2 (4)
  137   214           0.7259888842          19.7551618727     E''        B2 (3)
  138    57           0.7409495403          20.1622620215    A1'         A1 (1)
  139   145           0.7708421136          20.9756802932     E'         B1 (2)
  140    58           0.7708421136          20.9756802934     E'         A1 (1)
  141   215           0.7844888521          21.3470269279    A2''        B2 (3)
  142   267           0.7927105390          21.5707504016     E''        A2 (4)
  143   216           0.7927105390          21.5707504019     E''        B2 (3)
  144   146           0.8548067782          23.2604749737     E'         B1 (2)
  145    59           0.8548067785          23.2604749821     E'         A1 (1)
  146    60           0.8681671451          23.6240290417    A1'         A1 (1)
  147   217           0.8897996952          24.2126806545    A2''        B2 (3)
  148    61           0.9196754441          25.0256411134    A1'         A1 (1)
  149   147           0.9388904072          25.5485068420     E'         B1 (2)
  150    62           0.9388904073          25.5485068431     E'         A1 (1)
  151    63           0.9480425007          25.7975479650    A1'         A1 (1)
  152   268           0.9538120463          25.9545452840     E''        A2 (4)
  153   218           0.9538120463          25.9545452845     E''        B2 (3)
  154    64           1.0226789438          27.8285088357     E'         A1 (1)
  155   148           1.0226789438          27.8285088357     E'         B1 (2)
  156   149           1.0293424685          28.0098325601    A2'         B1 (2)
  157   150           1.0786352372          29.3511569882     E'         B1 (2)
  158    65           1.0786352380          29.3511570101     E'         A1 (1)
  159    66           1.0979254809          29.8760712047    A1'         A1 (1)
  160   219           1.1031813385          30.0190903607    A2''        B2 (3)
  161   220           1.1151980123          30.3460806799     E''        B2 (3)
  162   269           1.1151980123          30.3460806801     E''        A2 (4)
  163   270           1.1262088908          30.6457019148    A1''        A2 (4)
  164   221           1.1535563824          31.3898649937    A2''        B2 (3)
  165    67           1.1575296771          31.4979838394    A1'         A1 (1)
  166    68           1.1639716654          31.6732792535     E'         A1 (1)
  167   151           1.1639716654          31.6732792536     E'         B1 (2)
  168   152           1.1850802748          32.2476737168     E'         B1 (2)
  169    69           1.1850802750          32.2476737219     E'         A1 (1)
  170   153           1.1927999205          32.4577359568    A2'         B1 (2)
  171   271           1.2024948797          32.7215492092     E''        A2 (4)
  172   222           1.2024948798          32.7215492097     E''        B2 (3)
  173   223           1.2547420207          34.1432661926     E''        B2 (3)
  174   272           1.2547420207          34.1432661927     E''        A2 (4)
  175   224           1.2793951136          34.8141109570     E''        B2 (3)
  176   273           1.2793951137          34.8141109577     E''        A2 (4)
  177   154           1.2972500861          35.2999694573     E'         B1 (2)
  178    70           1.2972500861          35.2999694588     E'         A1 (1)
  179   225           1.3198510458          35.9149728378    A2''        B2 (3)
  180   274           1.3518929063          36.7868761893     E''        A2 (4)
  181   226           1.3518929063          36.7868761898     E''        B2 (3)
  182    71           1.3564362891          36.9105079201    A1'         A1 (1)
  183   227           1.3644336038          37.1281259161    A2''        B2 (3)
  184    72           1.3905786307          37.8395682681     E'         A1 (1)
  185   155           1.3905786308          37.8395682713     E'         B1 (2)
  186    73           1.4173390140          38.5677553171    A1'         A1 (1)
  187   228           1.4344522337          39.0334296990    A2''        B2 (3)
  188   156           1.4382227571          39.1360308569     E'         B1 (2)
  189    74           1.4382227571          39.1360308578     E'         A1 (1)
  190   157           1.4643021483          39.8456871712     E'         B1 (2)
  191    75           1.4643021489          39.8456871858     E'         A1 (1)
  192   275           1.4896060032          40.5342400689     E''        A2 (4)
  193   229           1.4896060033          40.5342400695     E''        B2 (3)
  194    76           1.5036705028          40.9169545592    A1'         A1 (1)
  195   158           1.5516287528          42.2219648861     E'         B1 (2)
  196    77           1.5516287529          42.2219648883     E'         A1 (1)
  197   159           1.5657410475          42.6059799495    A2'         B1 (2)
  198    78           1.5951291333          43.4056704175    A1'         A1 (1)
  199   160           1.6355112506          44.5045236940     E'         B1 (2)
  200    79           1.6355112507          44.5045236988     E'         A1 (1)
  201   276           1.6459929983          44.7897465493    A1''        A2 (4)
  202   230           1.6763609320          45.6161000385     E''        B2 (3)
  203   277           1.6763609320          45.6161000387     E''        A2 (4)
  204    80           1.6933140407          46.0774175782    A1'         A1 (1)
  205    81           1.7032115996          46.3467438472     E'         A1 (1)
  206   161           1.7032115997          46.3467438496     E'         B1 (2)
  207   278           1.7277112777          47.0134139811     E''        A2 (4)
  208   231           1.7277112777          47.0134139815     E''        B2 (3)
  209   232           1.7376478935          47.2838030434    A2''        B2 (3)
  210   162           1.7460777296          47.5131905457     E'         B1 (2)
  211    82           1.7460777299          47.5131905552     E'         A1 (1)
  212   233           1.7634524187          47.9859798727     E''        B2 (3)
  213   279           1.7634524187          47.9859798728     E''        A2 (4)
  214   234           1.8487713035          50.3076247593     E''        B2 (3)
  215   280           1.8487713035          50.3076247594     E''        A2 (4)
  216    83           1.8730273463          50.9676652393    A1'         A1 (1)
  217   163           1.8771199431          51.0790304594    A2'         B1 (2)
  218   164           1.8780618157          51.1046601164     E'         B1 (2)
  219    84           1.8780618160          51.1046601231     E'         A1 (1)
  220   235           1.9170165081          52.1646711873    A2''        B2 (3)
  221   165           1.9660971611          53.5002236526     E'         B1 (2)
  222    85           1.9660971619          53.5002236728     E'         A1 (1)
  223   166           2.0025045982          54.4909203807     E'         B1 (2)
  224    86           2.0025045983          54.4909203836     E'         A1 (1)
  225   281           2.0439994879          55.6200537351     E''        A2 (4)
  226   236           2.0439994879          55.6200537355     E''        B2 (3)
  227   237           2.0941244286          56.9840227145    A2''        B2 (3)
  228    87           2.1620795344          58.8331751510    A1'         A1 (1)
  229   282           2.1857410574          59.4770379273     E''        A2 (4)
  230   238           2.1857410575          59.4770379278     E''        B2 (3)
  231    88           2.2588695657          61.4669658024    A1'         A1 (1)
  232   167           2.3269706578          63.3200907300     E'         B1 (2)
  233    89           2.3269706636          63.3200908866     E'         A1 (1)
  234   239           2.3336511828          63.5018770568    A2''        B2 (3)
  235   168           2.3865601830          64.9416041469     E'         B1 (2)
  236    90           2.3865601835          64.9416041605     E'         A1 (1)
  237    91           2.4814037475          67.5224287446    A1'         A1 (1)
  238   169           2.5554790131          69.5381191964     E'         B1 (2)
  239    92           2.5554790151          69.5381192510     E'         A1 (1)
  240   170           2.6377213466          71.7760468645    A2'         B1 (2)
  241   240           2.7497440832          74.8243404992    A2''        B2 (3)
  242   171           2.7645892453          75.2282978979     E'         B1 (2)
  243    93           2.7645892475          75.2282979580     E'         A1 (1)
  244   283           2.7968303537          76.1056230592     E''        A2 (4)
  245   241           2.7968303537          76.1056230593     E''        B2 (3)
  246    94           2.9336721975          79.8292789355    A1'         A1 (1)
[...]
        10                P              0.03925194
        10                P              1.52971364
        10                P             -0.21522479
        10                P             -0.01001020
        10                D              0.00178770
        10                D              0.00037790
        10                D              0.00000041
        10                D             -0.00001324
        10                D              0.00601767
        10                D              0.01278676
        10                D              0.00175316
        10                D              0.00027269
        10                D              0.00635120
        10                D              0.01416147
        10                D              0.00708003
        10                D              0.00136382
 -------------------------------------------------------
  Population analysis by atoms (atomic charges).
 -------------------------------------------------------
     Z-matrix
      Center          Function          Population
 -------------------------------------------------------
         1                              26.07013325
         2                               5.64693246
         6                               5.64693246
         3                               5.47229504
         5                               5.47229504
         4                               5.47229505
         7                               8.37839031
         8                               8.37839031
         9                               8.48744536
        11                               8.48744536
        10                               8.48744536
 -------------------------------------------------------

  Mulliken population analysis of CCSD(T) density.
   Total density is analyzed.

  Population analysis by orbitals.
 -------------------------------------------------------
     Z-matrix
      Center          Function          Population
 -------------------------------------------------------
         1                S              1.99997441
         1                S              1.99943898
         1                S              2.05062432
         1                S              0.77134590
         1                S              0.02302373
         1                S              0.17619604
         1                S             -0.02591536
         1                P              1.99990494
         1                P              2.04684239
         1                P              0.49497068
         1                P             -0.35642807
         1                P              0.33286219
         1                P              0.00044229
         1                P              2.00001601
         1                P              2.00366953
         1                P              0.97768485
         1                P             -1.35527554
         1                P              0.43104304
         1                P              0.00242879
         1                P              1.99990494
         1                P              2.04684239
         1                P              0.49497068
         1                P             -0.35642807
         1                P              0.33286219
         1                P              0.00044229
         1                D              0.82324091
         1                D              0.02171009
         1                D             -0.07383836
         1                D             -0.01130118
         1                D              1.49161080
         1                D              0.03293157
         1                D             -0.02739933
         1                D             -0.03891144
         1                D              1.39499156
         1                D              0.03259923
         1                D             -0.10092068
         1                D             -0.01952544
         1                D              0.50298053
         1                D              0.02164191
         1                D             -0.09351209
         1                D             -0.00615383
         1                D              1.49161080
         1                D              0.03293157
         1                D             -0.02739933
         1                D             -0.03891144
         1                D              0.82324091
         1                D              0.02171009
         1                D             -0.07383836
         1                D             -0.01130118
         1                F              0.00132176
         1                F              0.00799012
         1                F              0.00289347
         1                F              0.01054071
         1                F              0.00352188
         1                F              0.00835036
         1                F              0.00265903
         1                F              0.01360887
         1                F              0.00318033
         1                F              0.00823858
         1                F              0.00263577
         1                F              0.01716593
         1                F              0.00173774
         1                F              0.00856189
         1                F              0.00265903
         1                F              0.01360887
         1                F              0.00289347
         1                F              0.01054071
         1                F              0.00161713
         1                F              0.00505160
         2                S              2.00735043
         6                S              2.00735043
         2                S              1.58167725
         6                S              1.58167725
         2                S             -0.09942360
         6                S             -0.09942360
         2                S             -0.08693207
         6                S             -0.08693207
         2                P              0.76621385
         6                P              0.76621385
         2                P             -0.13447413
         6                P             -0.13447413
         2                P              0.01518945
         6                P              0.01518945
         2                P              1.14876017
         6                P              1.14876017
         2                P             -0.33254336
         6                P             -0.33254336
         2                P             -0.02338944
         6                P             -0.02338944
         2                P              0.76621385
         6                P              0.76621385
         2                P             -0.13447413
         6                P             -0.13447413
         2                P              0.01518945
         6                P              0.01518945
         2                D              0.00830326
         6                D              0.00830326
         2                D             -0.00115954
         6                D             -0.00115954
         2                D              0.05645672
         6                D              0.05645672
         2                D              0.02637549
         6                D              0.02637549
         2                D              0.00396530
         6                D              0.00396530
         2                D              0.00444537
         6                D              0.00444537
         2                D              0.02528243
         6                D              0.02528243
         2                D             -0.01352892
         6                D             -0.01352892
         2                D              0.05645672
         6                D              0.05645672
         2                D              0.02637549
         6                D              0.02637549
         2                D              0.00830326
         6                D              0.00830326
         2                D             -0.00115954
         6                D             -0.00115954
         3                S              2.00720566
         5                S              2.00720566
         3                S              1.59436722
         5                S              1.59436722
         3                S             -0.11154622
         5                S             -0.11154622
         3                S             -0.16950674
         5                S             -0.16950674
         3                P              1.06061419
         5                P              1.06061419
         3                P             -0.29274618
         5                P             -0.29274618
         3                P             -0.01073765
         5                P             -0.01073765
         3                P              0.73276571
         5                P              0.73276571
         3                P             -0.12542327
         5                P             -0.12542327
         3                P             -0.01197792
         5                P             -0.01197792
         3                P              0.88449891
         5                P              0.88449891
         3                P             -0.16169581
         5                P             -0.16169581
         3                P              0.00880553
         5                P              0.00880553
         3                D              0.03279345
         5                D              0.03279345
         3                D              0.00354613
         5                D              0.00354613
         3                D              0.04130062
         5                D              0.04130062
         3                D              0.00873348
         5                D              0.00873348
         3                D              0.03938019
         5                D              0.03938019
         3                D             -0.00631913
         5                D             -0.00631913
         3                D              0.00889760
         5                D              0.00889760
         3                D             -0.00274943
         5                D             -0.00274943
         3                D              0.01636165
         5                D              0.01636165
         3                D              0.00470535
         5                D              0.00470535
         3                D              0.02302935
         5                D              0.02302935
         3                D              0.01067536
         5                D              0.01067536
         4                S              2.00720566
         4                S              1.59436722
         4                S             -0.11154622
         4                S             -0.16950674
         4                P              0.79644127
         4                P             -0.09617062
         4                P              0.01857712
         4                P              0.73276571
         4                P             -0.12542327
         4                P             -0.01197792
         4                P              1.14867182
         4                P             -0.35827136
         4                P             -0.02050923
         4                D              0.00915194
         4                D             -0.00219652
         4                D              0.00389217
         4                D              0.00269129
         4                D              0.05737089
         4                D              0.02655388
         4                D              0.00889760
         4                D             -0.00274943
         4                D              0.05377010
         4                D              0.01074754
         4                D              0.02868015
         4                D             -0.01645499
         7                S              2.00311919
         8                S              2.00311919
         7                S              1.85724617
         8                S              1.85724617
         7                S             -0.04278487
         8                S             -0.04278487
         7                S              0.12243079
         8                S              0.12243079
         7                P              1.47364589
         8                P              1.47364589
         7                P             -0.01961081
         8                P             -0.01961081
         7                P              0.01923418
         8                P              0.01923418
         7                P              1.51579910
         8                P              1.51579910
         7                P             -0.22340085
         8                P             -0.22340085
         7                P             -0.00678333
         8                P             -0.00678333
         7                P              1.47364589
         8                P              1.47364589
         7                P             -0.01961081
         8                P             -0.01961081
         7                P              0.01923418
         8                P              0.01923418
         7                D              0.00408468
         8                D              0.00408468
         7                D              0.00157839
         8                D              0.00157839
         7                D              0.00973874
         8                D              0.00973874
         7                D              0.01335893
         8                D              0.01335893
         7                D              0.00360158
         8                D              0.00360158
         7                D              0.00217416
         8                D              0.00217416
         7                D              0.00913558
         8                D              0.00913558
         7                D              0.00196526
         8                D              0.00196526
         7                D              0.00973874
         8                D              0.00973874
         7                D              0.01335893
         8                D              0.01335893
         7                D              0.00408468
         8                D              0.00408468
         7                D              0.00157839
         8                D              0.00157839
         9                S              2.00316311
        11                S              2.00316311
         9                S              1.85339666
        11                S              1.85339666
         9                S             -0.02754432
        11                S             -0.02754432
         9                S              0.14959814
        11                S              0.14959814
         9                P              1.51151405
        11                P              1.51151405
         9                P             -0.16733949
        11                P             -0.16733949
         9                P              0.00044335
        11                P              0.00044335
         9                P              1.45183962
        11                P              1.45183962
         9                P             -0.01212290
        11                P             -0.01212290
         9                P              0.03757177
        11                P              0.03757177
         9                P              1.49995694
        11                P              1.49995694
         9                P             -0.06545623
        11                P             -0.06545623
         9                P              0.01945040
        11                P              0.01945040
         9                D              0.00724720
        11                D              0.00724720
         9                D              0.00557814
        11                D              0.00557814
         9                D              0.00808237
        11                D              0.00808237
         9                D              0.01095332
        11                D              0.01095332
         9                D              0.01074898
        11                D              0.01074898
         9                D              0.00501287
        11                D              0.00501287
         9                D              0.00405012
        11                D              0.00405012
         9                D              0.00150321
        11                D              0.00150321
         9                D              0.00509716
        11                D              0.00509716
         9                D              0.00514515
        11                D              0.00514515
         9                D              0.00475932
        11                D              0.00475932
         9                D              0.00554597
        11                D              0.00554597
        10                S              2.00316311
        10                S              1.85339666
        10                S             -0.02754432
        10                S              0.14959814
        10                P              1.49417838
        10                P             -0.01451460
        10                P              0.02895393
        10                P              1.45183962
        10                P             -0.01212290
        10                P              0.03757177
        10                P              1.51729260
        10                P             -0.21828112
        10                P             -0.00906017
        10                D              0.00409102
        10                D              0.00151016
        10                D              0.00360456
        10                D              0.00224106
        10                D              0.00959770
        10                D              0.01305232
        10                D              0.00405012
        10                D              0.00150321
        10                D              0.00957497
        10                D              0.01385741
        10                D              0.00906679
        10                D              0.00157450
 -------------------------------------------------------
  Population analysis by atoms (atomic charges).
 -------------------------------------------------------
     Z-matrix
      Center          Function          Population
 -------------------------------------------------------
         1                              26.38840805
         2                               5.68947374
         6                               5.68947374
         3                               5.58497806
         5                               5.58497806
         4                               5.58497806
         7                               8.24656276
         8                               8.24656276
         9                               8.32819493
        11                               8.32819493
        10                               8.32819492
 -------------------------------------------------------
 @CHECKOUT-I, Total execution time (CPU/WALL):        9.97/       0.49 seconds.
--executable xprops finished with status     0 in        0.51 seconds (walltime).
  The final electronic energy is     -1828.201466155956041 a.u. 
  This computation required                        90702.78 seconds (walltime).
Attempting to clean /scratch/jearias... save is False. TIME: Sat 30 Aug 2025 12:36:41 AM PDT
Total of 90704 seconds elapsed for this process.
