 vasp.5.4.4.18Apr17-6-g9f103f2a35 (build Apr 06 2023 23:00:39) complex          
  
 executed on             LinuxIFC date 2024.02.10  16:03:24
 running on   14 total cores
 distrk:  each k-point on   14 cores,    1 groups
 distr:  one band on NCORES_PER_BAND=   1 cores,   14 groups


--------------------------------------------------------------------------------------------------------


 INCAR:
 POTCAR:    PAW K_pv 22Nov2003                    
 POTCAR:    PAW Nb_pv 09Jan2002                   
 POTCAR:    PAW O 22Mar2012                       

 ----------------------------------------------------------------------------- 
|                                                                             |
|           W    W    AA    RRRRR   N    N  II  N    N   GGGG   !!!           |
|           W    W   A  A   R    R  NN   N  II  NN   N  G    G  !!!           |
|           W    W  A    A  R    R  N N  N  II  N N  N  G       !!!           |
|           W WW W  AAAAAA  RRRRR   N  N N  II  N  N N  G  GGG   !            |
|           WW  WW  A    A  R   R   N   NN  II  N   NN  G    G                |
|           W    W  A    A  R    R  N    N  II  N    N   GGGG   !!!           |
|                                                                             |
|      For optimal performance we recommend to set                            |
|        NCORE= 4 - approx SQRT( number of cores)                             |
|      NCORE specifies how many cores store one orbital (NPAR=cpu/NCORE).     |
|      This setting can  greatly improve the performance of VASP for DFT.     |
|      The default,   NCORE=1            might be grossly inefficient         |
|      on modern multi-core architectures or massively parallel machines.     |
|      Do your own testing !!!!                                               |
|      Unfortunately you need to use the default for GW and RPA calculations. |
|      (for HF NCORE is supported but not extensively tested yet)             |
|                                                                             |
 ----------------------------------------------------------------------------- 

 POTCAR:    PAW K_pv 22Nov2003                    
   SHA256 =  e70b2d7923c66bb12e1fff0b7f30c0646e01841926400093437e22fdf4dbee15 K_
   COPYR  = (c) Copyright 22Nov2003 Georg Kresse                                
   COPYR  = This file is part of the software VASP. Any use, copying, and all ot
   COPYR  = If you do not have a valid VASP license, you may not use, copy or di
   VRHFIN =K:  p6s1                                                             
   LEXCH  = CA                                                                  
   EATOM  =   451.4791 eV,   33.1828 Ry                                         
                                                                                
   TITEL  = PAW K_pv 22Nov2003                                                  
   LULTRA =        F    use ultrasoft PP ?                                      
   IUNSCR =        1    unscreen: 0-lin 1-nonlin 2-no                           
   RPACOR =    2.500    partial core radius                                     
   POMASS =   39.098; ZVAL   =    7.000    mass and valenz                      
   RCORE  =    3.000    outmost cutoff radius                                   
   RWIGS  =    4.300; RWIGS  =    2.275    wigner-seitz radius (au A)           
   ENMAX  =  116.596; ENMIN  =   87.447 eV                                      
   RCLOC  =    2.806    cutoff for local pot                                    
   LCOR   =        T    correct aug charges                                     
   LPAW   =        T    paw PP                                                  
   EAUG   =  291.424                                                            
   DEXC   =    0.000                                                            
   RMAX   =    3.071    core radius for proj-oper                               
   RAUG   =    1.300    factor for augmentation sphere                          
   RDEP   =    3.064    radius for radial grids                                 
   RDEPT  =    2.426    core radius for aug-charge                              
                                                                                
   Atomic configuration                                                         
    7 entries                                                                   
     n  l   j            E        occ.                                          
     1  0  0.50     -3504.5031   2.0000                                         
     2  0  0.50      -351.7660   2.0000                                         
     2  1  1.50      -279.8441   6.0000                                         
     3  0  0.50       -35.1349   2.0000                                         
     3  1  1.50       -18.8344   6.0000                                         
     4  0  0.50        -2.4291   1.0000                                         
     3  2  1.50        -1.3606   0.0000                                         
   Description                                                                  
     l       E           TYP  RCUT    TYP  RCUT                                 
     1    -18.8344179     23  3.000                                             
     1    -20.4087390     23  3.000                                             
     0     -2.4291394     23  3.000                                             
     0     13.6058260     23  3.000                                             
     2     -1.3605826     23  3.000                                             
  local pseudopotential read in
  partial core-charges read in
  partial kinetic energy density read in
  atomic valenz-charges read in
  non local Contribution for L=           1  read in
    real space projection operators read in
  non local Contribution for L=           1  read in
    real space projection operators read in
  non local Contribution for L=           0  read in
    real space projection operators read in
  non local Contribution for L=           0  read in
    real space projection operators read in
  non local Contribution for L=           2  read in
    real space projection operators read in
    PAW grid and wavefunctions read in
 
   number of l-projection  operators is LMAX  =           5
   number of lm-projection operators is LMMAX =          13
 
 POTCAR:    PAW Nb_pv 09Jan2002                   
   SHA256 =  cf0b8fef3b554850e073972db1a4ce251056ac9a6afaa5266d37f6191bedc78a Nb
   COPYR  = (c) Copyright 09Jan2002 Georg Kresse                                
   COPYR  = This file is part of the software VASP. Any use, copying, and all ot
   COPYR  = If you do not have a valid VASP license, you may not use, copy or di
   VRHFIN =Nb: s1d4                                                             
   LEXCH  = CA                                                                  
   EATOM  =  1046.3740 eV,   76.9063 Ry                                         
                                                                                
   TITEL  = PAW Nb_pv 09Jan2002                                                 
   LULTRA =        F    use ultrasoft PP ?                                      
   IUNSCR =        1    unscreen: 0-lin 1-nonlin 2-no                           
   RPACOR =    2.200    partial core radius                                     
   POMASS =   92.910; ZVAL   =   11.000    mass and valenz                      
   RCORE  =    2.750    outmost cutoff radius                                   
   RWIGS  =    2.840; RWIGS  =    1.503    wigner-seitz radius (au A)           
   ENMAX  =  207.263; ENMIN  =  155.447 eV                                      
   RCLOC  =    2.209    cutoff for local pot                                    
   LCOR   =        T    correct aug charges                                     
   LPAW   =        T    paw PP                                                  
   EAUG   =  352.745                                                            
   DEXC   =    0.000                                                            
   RMAX   =    2.814    core radius for proj-oper                               
   RAUG   =    1.300    factor for augmentation sphere                          
   RDEP   =    2.785    radius for radial grids                                 
   RDEPT  =    2.205    core radius for aug-charge                              
                                                                                
   Atomic configuration                                                         
   11 entries                                                                   
     n  l   j            E        occ.                                          
     1  0  0.50    -18704.9804   2.0000                                         
     2  0  0.50     -2619.6337   2.0000                                         
     2  1  1.50     -2343.2033   6.0000                                         
     3  0  0.50      -436.6391   2.0000                                         
     3  1  1.50      -345.9106   6.0000                                         
     3  2  2.50      -196.5794  10.0000                                         
     4  0  0.50       -58.2950   2.0000                                         
     4  1  1.50       -34.5590   6.0000                                         
     4  2  2.50        -3.2208   4.0000                                         
     5  0  0.50        -4.1880   1.0000                                         
     4  3  2.50        -1.3606   0.0000                                         
   Description                                                                  
     l       E           TYP  RCUT    TYP  RCUT                                 
     1    -34.5590103     23  2.600                                             
     1     -1.3605826     23  2.600                                             
     2     -3.2207521     23  2.600                                             
     2     -1.6263194     23  2.600                                             
     0     -4.1879630     23  2.750                                             
     0     20.4087390     23  2.750                                             
  local pseudopotential read in
  partial core-charges read in
  partial kinetic energy density read in
  atomic valenz-charges read in
  non local Contribution for L=           1  read in
    real space projection operators read in
  non local Contribution for L=           1  read in
    real space projection operators read in
  non local Contribution for L=           2  read in
    real space projection operators read in
  non local Contribution for L=           2  read in
    real space projection operators read in
  non local Contribution for L=           0  read in
    real space projection operators read in
  non local Contribution for L=           0  read in
    real space projection operators read in
    PAW grid and wavefunctions read in
 
   number of l-projection  operators is LMAX  =           6
   number of lm-projection operators is LMMAX =          18
 
 POTCAR:    PAW O 22Mar2012                       
   SHA256 =  fb56c0ff35fa0205295a7064175e8d4dc8b8fd86664824e51d4c6af4372219f2 O/
   COPYR  = (c) Copyright 22Mar2012 Georg Kresse                                
   COPYR  = This file is part of the software VASP. Any use, copying, and all ot
   COPYR  = If you do not have a valid VASP license, you may not use, copy or di
   VRHFIN =O: s2p4                                                              
   LEXCH  = CA                                                                  
   EATOM  =   431.4380 eV,   31.7098 Ry                                         
                                                                                
   TITEL  = PAW O 22Mar2012                                                     
   LULTRA =        F    use ultrasoft PP ?                                      
   IUNSCR =        1    unscreen: 0-lin 1-nonlin 2-no                           
   RPACOR =    1.200    partial core radius                                     
   POMASS =   16.000; ZVAL   =    6.000    mass and valenz                      
   RCORE  =    1.520    outmost cutoff radius                                   
   RWIGS  =    1.550; RWIGS  =    0.820    wigner-seitz radius (au A)           
   ENMAX  =  400.000; ENMIN  =  300.000 eV                                      
   ICORE  =        2    local potential                                         
   LCOR   =        T    correct aug charges                                     
   LPAW   =        T    paw PP                                                  
   EAUG   =  605.392                                                            
   DEXC   =    0.000                                                            
   RMAX   =    1.553    core radius for proj-oper                               
   RAUG   =    1.300    factor for augmentation sphere                          
   RDEP   =    1.550    radius for radial grids                                 
   RDEPT  =    1.329    core radius for aug-charge                              
                                                                                
   Atomic configuration                                                         
    4 entries                                                                   
     n  l   j            E        occ.                                          
     1  0  0.50      -510.4605   2.0000                                         
     2  0  0.50       -23.7367   2.0000                                         
     2  1  0.50        -9.1995   4.0000                                         
     3  2  1.50        -9.5241   0.0000                                         
   Description                                                                  
     l       E           TYP  RCUT    TYP  RCUT                                 
     0    -23.7366993     23  1.200                                             
     0     -9.5240782     23  1.200                                             
     1     -9.1994509     23  1.520                                             
     1      8.1634956     23  1.520                                             
     2     -9.5240782      7  1.500                                             
  local pseudopotential read in
  partial core-charges read in
  partial kinetic energy density read in
  kinetic energy density of atom read in
  atomic valenz-charges read in
  non local Contribution for L=           0  read in
    real space projection operators read in
  non local Contribution for L=           0  read in
    real space projection operators read in
  non local Contribution for L=           1  read in
    real space projection operators read in
  non local Contribution for L=           1  read in
    real space projection operators read in
    PAW grid and wavefunctions read in
 
   number of l-projection  operators is LMAX  =           4
   number of lm-projection operators is LMMAX =           8
 
 Optimization of the real space projectors (new method)

 maximal supplied QI-value         = 12.47
 optimisation between [QCUT,QGAM] = [ 11.97, 23.95] = [ 40.14,160.58] Ry 
 Optimized for a Real-space Cutoff    1.68 Angstroem

   l    n(q)    QCUT    max X(q) W(low)/X(q) W(high)/X(q)  e(spline) 
   1     12    11.973    43.885    0.20E-03    0.61E-04    0.29E-05
   1     12    11.973    44.107    0.21E-03    0.63E-04    0.30E-05
   0     12    11.973    65.975    0.77E-04    0.82E-04    0.14E-05
   0     12    11.973    25.023    0.50E-04    0.56E-04    0.93E-06
   2     11    11.973     5.381    0.19E-04    0.39E-04    0.15E-06
 Optimization of the real space projectors (new method)

 maximal supplied QI-value         = 13.61
 optimisation between [QCUT,QGAM] = [ 11.97, 23.95] = [ 40.14,160.58] Ry 
 Optimized for a Real-space Cutoff    1.63 Angstroem

   l    n(q)    QCUT    max X(q) W(low)/X(q) W(high)/X(q)  e(spline) 
   1     11    11.973     4.580    0.44E-05    0.15E-04    0.13E-06
   1     11    11.973     6.005    0.21E-04    0.48E-04    0.27E-06
   2     11    11.973   189.543    0.30E-03    0.19E-03    0.11E-05
   2     11    11.973   165.669    0.30E-03    0.19E-03    0.11E-05
   0     12    11.973    36.742    0.64E-04    0.61E-04    0.48E-06
   0     12    11.973    16.256    0.50E-04    0.47E-04    0.37E-06
 Optimization of the real space projectors (new method)

 maximal supplied QI-value         = 24.76
 optimisation between [QCUT,QGAM] = [ 11.88, 24.01] = [ 39.54,161.47] Ry 
 Optimized for a Real-space Cutoff    1.05 Angstroem

   l    n(q)    QCUT    max X(q) W(low)/X(q) W(high)/X(q)  e(spline) 
   0      7    11.883    20.659    0.33E-03    0.21E-03    0.21E-06
   0      7    11.883    15.633    0.36E-03    0.22E-03    0.22E-06
   1      7    11.883     5.864    0.41E-03    0.84E-04    0.23E-06
   1      7    11.883     5.285    0.36E-03    0.46E-04    0.20E-06
  PAW K_pv 22Nov2003                    :
 energy of atom  1       EATOM= -451.4791
 kinetic energy error for atom=    0.0001 (will be added to EATOM!!)
  PAW Nb_pv 09Jan2002                   :
 energy of atom  2       EATOM=-1046.3740
 kinetic energy error for atom=    0.0008 (will be added to EATOM!!)
  PAW O 22Mar2012                       :
 energy of atom  3       EATOM= -431.4380
 kinetic energy error for atom=    0.0191 (will be added to EATOM!!)
 
 
 POSCAR: K2 Nb2 O6                               
  positions in direct lattice
  velocities in cartesian coordinates
 exchange correlation table for  LEXCH =        2
   RHO(1)=    0.500       N(1)  =     2000
   RHO(2)=  100.500       N(2)  =     4000
 


--------------------------------------------------------------------------------------------------------


 ion  position               nearest neighbor table
   1  0.500  0.015  0.500-   7 2.75   6 2.79   5 2.79   5 2.79   6 2.79  10 2.84  10 2.84   8 2.86
                             9 2.86   8 2.86   9 2.86   7 2.94   3 3.42   3 3.42   4 3.47   4 3.47
   2  0.000  0.515  0.500-  10 2.75   9 2.79   8 2.79   8 2.79   9 2.79   7 2.84   7 2.84   5 2.86
                             5 2.86   6 2.86   6 2.86  10 2.94   4 3.42   4 3.42   3 3.47   3 3.47
   3  0.500  0.505  0.000-   9 1.92   8 1.92   7 2.00   7 2.00   6 2.10   5 2.10   1 3.42   1 3.42
                             2 3.47   2 3.47   2 3.47   2 3.47   1 3.52   1 3.52
   4  0.000  0.005  0.000-   6 1.92   5 1.92  10 2.00  10 2.00   8 2.10   9 2.10   2 3.42   2 3.42
                             1 3.47   1 3.47   1 3.47   1 3.47   2 3.52   2 3.52
   5  0.750  0.778  0.000-   4 1.92   3 2.10   1 2.79   1 2.79   2 2.86   2 2.86
   6  0.250  0.778  0.000-   4 1.92   3 2.10   1 2.79   1 2.79   2 2.86   2 2.86
   7  0.500  0.532  0.500-   3 2.00   3 2.00   1 2.75   2 2.84   2 2.84   1 2.94
   8  0.250  0.278  0.000-   3 1.92   4 2.10   2 2.79   2 2.79   1 2.86   1 2.86
   9  0.750  0.278  0.000-   3 1.92   4 2.10   2 2.79   2 2.79   1 2.86   1 2.86
  10  0.000  0.032  0.500-   4 2.00   4 2.00   2 2.75   1 2.84   1 2.84   2 2.94
 
  LATTYP: Found a simple orthorhombic cell.
 ALAT       =     3.9800645242
 B/A-ratio  =     1.4255033657
 C/A-ratio  =     1.4277898118
  
  Lattice vectors:
  
 A1 = (   0.0000000000,   0.0000000000,   3.9800645242)
 A2 = (  -5.6735953748,   0.0000000000,  -0.0000000000)
 A3 = (  -0.0000000000,  -5.6826955779,  -0.0000000000)


Analysis of symmetry for initial positions (statically):
=====================================================================
 Subroutine PRICEL returns following result:
 
  LATTYP: Found a base centered orthorhombic cell.
 ALAT       =     5.6735953748
 B/A-ratio  =     1.0016039570
 C/A-ratio  =     0.7015065864
  
  Lattice vectors:
  
 A1 = (  -2.8367976874,  -2.8413477889,  -0.0000000000)
 A2 = (  -2.8367976874,   2.8413477889,   0.0000000000)
 A3 = (   0.0000000000,   0.0000000000,  -3.9800645242)
 
   2 primitive cells build up your supercell.
 

 Routine SETGRP: Setting up the symmetry group for a 
 simple orthorhombic supercell.


 Subroutine GETGRP returns: Found  4 space group operations
 (whereof  4 operations were pure point group operations)
 out of a pool of  8 trial point group operations.


The static configuration has the point symmetry C_2v.


Analysis of symmetry for dynamics (positions and initial velocities):
=====================================================================
 Subroutine PRICEL returns following result:
 
  LATTYP: Found a base centered orthorhombic cell.
 ALAT       =     5.6735953748
 B/A-ratio  =     1.0016039570
 C/A-ratio  =     0.7015065864
  
  Lattice vectors:
  
 A1 = (  -2.8367976874,  -2.8413477889,  -0.0000000000)
 A2 = (  -2.8367976874,   2.8413477889,   0.0000000000)
 A3 = (   0.0000000000,   0.0000000000,  -3.9800645242)
 
   2 primitive cells build up your supercell.
 

 Routine SETGRP: Setting up the symmetry group for a 
 simple orthorhombic supercell.


 Subroutine GETGRP returns: Found  4 space group operations
 (whereof  4 operations were pure point group operations)
 out of a pool of  8 trial point group operations.


The dynamic configuration has the point symmetry C_2v.


Analysis of structural, dynamic, and magnetic symmetry:
=====================================================================
 Subroutine PRICEL returns following result:
 
  LATTYP: Found a base centered orthorhombic cell.
 ALAT       =     5.6735953748
 B/A-ratio  =     1.0016039570
 C/A-ratio  =     0.7015065864
  
  Lattice vectors:
  
 A1 = (  -2.8367976874,  -2.8413477889,  -0.0000000000)
 A2 = (  -2.8367976874,   2.8413477889,   0.0000000000)
 A3 = (   0.0000000000,   0.0000000000,  -3.9800645242)
 
   2 primitive cells build up your supercell.
 

 Routine SETGRP: Setting up the symmetry group for a 
 simple orthorhombic supercell.


 Subroutine GETGRP returns: Found  4 space group operations
 (whereof  4 operations were pure point group operations)
 out of a pool of  8 trial point group operations.


The magnetic configuration has the point symmetry C_2v.


 Subroutine INISYM returns: Found  4 space group operations
 (whereof  4 operations are pure point group operations),
 and found     2 'primitive' translations

 
 
 KPOINTS: K-Spacing Value to Generate K-Mesh: 0.05

Automatic generation of k-mesh.
Space group operators:
 irot       det(A)        alpha          n_x          n_y          n_z        tau_x        tau_y        tau_z
    1     1.000000     0.000000     1.000000     0.000000     0.000000     0.000000     0.000000     0.000000
    2     1.000000   180.000000     0.000000     1.000000     0.000000     0.000000     0.000000     0.000000
    3    -1.000000   180.000000     1.000000    -0.000000     0.000000     0.000000     0.000000     0.000000
    4    -1.000000   179.999999    -0.000000    -0.000000     1.000000     0.000000     0.000000     0.000000
 
 Subroutine IBZKPT returns following result:
 ===========================================
 
 Found     27 irreducible k-points:
 
 Following reciprocal coordinates:
            Coordinates               Weight
  0.000000  0.000000  0.000000      1.000000
  0.200000  0.000000  0.000000      2.000000
  0.400000  0.000000  0.000000      2.000000
  0.000000  0.200000  0.000000      2.000000
  0.200000  0.200000  0.000000      4.000000
  0.400000  0.200000  0.000000      4.000000
  0.000000  0.400000  0.000000      2.000000
  0.200000  0.400000  0.000000      4.000000
  0.400000  0.400000  0.000000      4.000000
  0.000000  0.000000  0.200000      2.000000
  0.200000  0.000000  0.200000      4.000000
  0.400000  0.000000  0.200000      4.000000
  0.000000  0.200000  0.200000      4.000000
  0.200000  0.200000  0.200000      8.000000
  0.400000  0.200000  0.200000      8.000000
  0.000000  0.400000  0.200000      4.000000
  0.200000  0.400000  0.200000      8.000000
  0.400000  0.400000  0.200000      8.000000
  0.000000  0.000000  0.400000      2.000000
  0.200000  0.000000  0.400000      4.000000
  0.400000  0.000000  0.400000      4.000000
  0.000000  0.200000  0.400000      4.000000
  0.200000  0.200000  0.400000      8.000000
  0.400000  0.200000  0.400000      8.000000
  0.000000  0.400000  0.400000      4.000000
  0.200000  0.400000  0.400000      8.000000
  0.400000  0.400000  0.400000      8.000000
 
 Following cartesian coordinates:
            Coordinates               Weight
  0.000000  0.000000  0.000000      1.000000
  0.035251 -0.000000  0.000000      2.000000
  0.070502 -0.000000  0.000000      2.000000
  0.000000  0.035195  0.000000      2.000000
  0.035251  0.035195  0.000000      4.000000
  0.070502  0.035195  0.000000      4.000000
  0.000000  0.070389  0.000000      2.000000
  0.035251  0.070389  0.000000      4.000000
  0.070502  0.070389  0.000000      4.000000
 -0.000000 -0.000000  0.050250      2.000000
  0.035251 -0.000000  0.050250      4.000000
  0.070502 -0.000000  0.050250      4.000000
 -0.000000  0.035195  0.050250      4.000000
  0.035251  0.035195  0.050250      8.000000
  0.070502  0.035195  0.050250      8.000000
 -0.000000  0.070389  0.050250      4.000000
  0.035251  0.070389  0.050250      8.000000
  0.070502  0.070389  0.050250      8.000000
 -0.000000 -0.000000  0.100501      2.000000
  0.035251 -0.000000  0.100501      4.000000
  0.070502 -0.000000  0.100501      4.000000
 -0.000000  0.035195  0.100501      4.000000
  0.035251  0.035195  0.100501      8.000000
  0.070502  0.035195  0.100501      8.000000
 -0.000000  0.070389  0.100501      4.000000
  0.035251  0.070389  0.100501      8.000000
  0.070502  0.070389  0.100501      8.000000
 
 
 Subroutine IBZKPT_HF returns following result:
 ==============================================
 
 Found    125 k-points in 1st BZ
 the following    125 k-points will be used (e.g. in the exchange kernel)
 Following reciprocal coordinates:   # in IRBZ
  0.000000  0.000000  0.000000    0.00800000   1 t-inv F
  0.200000  0.000000  0.000000    0.00800000   2 t-inv F
  0.400000  0.000000  0.000000    0.00800000   3 t-inv F
  0.000000  0.200000  0.000000    0.00800000   4 t-inv F
  0.200000  0.200000  0.000000    0.00800000   5 t-inv F
  0.400000  0.200000  0.000000    0.00800000   6 t-inv F
  0.000000  0.400000  0.000000    0.00800000   7 t-inv F
  0.200000  0.400000  0.000000    0.00800000   8 t-inv F
  0.400000  0.400000  0.000000    0.00800000   9 t-inv F
  0.000000  0.000000  0.200000    0.00800000  10 t-inv F
  0.200000  0.000000  0.200000    0.00800000  11 t-inv F
  0.400000  0.000000  0.200000    0.00800000  12 t-inv F
  0.000000  0.200000  0.200000    0.00800000  13 t-inv F
  0.200000  0.200000  0.200000    0.00800000  14 t-inv F
  0.400000  0.200000  0.200000    0.00800000  15 t-inv F
  0.000000  0.400000  0.200000    0.00800000  16 t-inv F
  0.200000  0.400000  0.200000    0.00800000  17 t-inv F
  0.400000  0.400000  0.200000    0.00800000  18 t-inv F
  0.000000  0.000000  0.400000    0.00800000  19 t-inv F
  0.200000  0.000000  0.400000    0.00800000  20 t-inv F
  0.400000  0.000000  0.400000    0.00800000  21 t-inv F
  0.000000  0.200000  0.400000    0.00800000  22 t-inv F
  0.200000  0.200000  0.400000    0.00800000  23 t-inv F
  0.400000  0.200000  0.400000    0.00800000  24 t-inv F
  0.000000  0.400000  0.400000    0.00800000  25 t-inv F
  0.200000  0.400000  0.400000    0.00800000  26 t-inv F
  0.400000  0.400000  0.400000    0.00800000  27 t-inv F
 -0.200000  0.000000  0.000000    0.00800000   2 t-inv F
 -0.400000  0.000000  0.000000    0.00800000   3 t-inv F
 -0.200000  0.200000  0.000000    0.00800000   5 t-inv F
 -0.400000  0.200000  0.000000    0.00800000   6 t-inv F
 -0.200000  0.400000  0.000000    0.00800000   8 t-inv F
 -0.400000  0.400000  0.000000    0.00800000   9 t-inv F
  0.000000  0.000000 -0.200000    0.00800000  10 t-inv F
 -0.200000  0.000000 -0.200000    0.00800000  11 t-inv F
 -0.200000  0.000000  0.200000    0.00800000  11 t-inv F
  0.200000  0.000000 -0.200000    0.00800000  11 t-inv F
 -0.400000  0.000000 -0.200000    0.00800000  12 t-inv F
 -0.400000  0.000000  0.200000    0.00800000  12 t-inv F
  0.400000  0.000000 -0.200000    0.00800000  12 t-inv F
  0.000000  0.200000 -0.200000    0.00800000  13 t-inv F
 -0.200000  0.200000 -0.200000    0.00800000  14 t-inv F
 -0.200000  0.200000  0.200000    0.00800000  14 t-inv F
  0.200000  0.200000 -0.200000    0.00800000  14 t-inv F
 -0.400000  0.200000 -0.200000    0.00800000  15 t-inv F
 -0.400000  0.200000  0.200000    0.00800000  15 t-inv F
  0.400000  0.200000 -0.200000    0.00800000  15 t-inv F
  0.000000  0.400000 -0.200000    0.00800000  16 t-inv F
 -0.200000  0.400000 -0.200000    0.00800000  17 t-inv F
 -0.200000  0.400000  0.200000    0.00800000  17 t-inv F
  0.200000  0.400000 -0.200000    0.00800000  17 t-inv F
 -0.400000  0.400000 -0.200000    0.00800000  18 t-inv F
 -0.400000  0.400000  0.200000    0.00800000  18 t-inv F
  0.400000  0.400000 -0.200000    0.00800000  18 t-inv F
  0.000000  0.000000 -0.400000    0.00800000  19 t-inv F
 -0.200000  0.000000 -0.400000    0.00800000  20 t-inv F
 -0.200000  0.000000  0.400000    0.00800000  20 t-inv F
  0.200000  0.000000 -0.400000    0.00800000  20 t-inv F
 -0.400000  0.000000 -0.400000    0.00800000  21 t-inv F
 -0.400000  0.000000  0.400000    0.00800000  21 t-inv F
  0.400000  0.000000 -0.400000    0.00800000  21 t-inv F
  0.000000  0.200000 -0.400000    0.00800000  22 t-inv F
 -0.200000  0.200000 -0.400000    0.00800000  23 t-inv F
 -0.200000  0.200000  0.400000    0.00800000  23 t-inv F
  0.200000  0.200000 -0.400000    0.00800000  23 t-inv F
 -0.400000  0.200000 -0.400000    0.00800000  24 t-inv F
 -0.400000  0.200000  0.400000    0.00800000  24 t-inv F
  0.400000  0.200000 -0.400000    0.00800000  24 t-inv F
  0.000000  0.400000 -0.400000    0.00800000  25 t-inv F
 -0.200000  0.400000 -0.400000    0.00800000  26 t-inv F
 -0.200000  0.400000  0.400000    0.00800000  26 t-inv F
  0.200000  0.400000 -0.400000    0.00800000  26 t-inv F
 -0.400000  0.400000 -0.400000    0.00800000  27 t-inv F
 -0.400000  0.400000  0.400000    0.00800000  27 t-inv F
  0.400000  0.400000 -0.400000    0.00800000  27 t-inv F
  0.000000 -0.200000  0.000000    0.00800000   4 t-inv T
 -0.200000 -0.200000  0.000000    0.00800000   5 t-inv T
  0.200000 -0.200000  0.000000    0.00800000   5 t-inv T
 -0.400000 -0.200000  0.000000    0.00800000   6 t-inv T
  0.400000 -0.200000  0.000000    0.00800000   6 t-inv T
  0.000000 -0.400000  0.000000    0.00800000   7 t-inv T
 -0.200000 -0.400000  0.000000    0.00800000   8 t-inv T
  0.200000 -0.400000  0.000000    0.00800000   8 t-inv T
 -0.400000 -0.400000  0.000000    0.00800000   9 t-inv T
  0.400000 -0.400000  0.000000    0.00800000   9 t-inv T
  0.000000 -0.200000 -0.200000    0.00800000  13 t-inv T
  0.000000 -0.200000  0.200000    0.00800000  13 t-inv T
 -0.200000 -0.200000 -0.200000    0.00800000  14 t-inv T
  0.200000 -0.200000  0.200000    0.00800000  14 t-inv T
  0.200000 -0.200000 -0.200000    0.00800000  14 t-inv T
 -0.200000 -0.200000  0.200000    0.00800000  14 t-inv T
 -0.400000 -0.200000 -0.200000    0.00800000  15 t-inv T
  0.400000 -0.200000  0.200000    0.00800000  15 t-inv T
  0.400000 -0.200000 -0.200000    0.00800000  15 t-inv T
 -0.400000 -0.200000  0.200000    0.00800000  15 t-inv T
  0.000000 -0.400000 -0.200000    0.00800000  16 t-inv T
  0.000000 -0.400000  0.200000    0.00800000  16 t-inv T
 -0.200000 -0.400000 -0.200000    0.00800000  17 t-inv T
  0.200000 -0.400000  0.200000    0.00800000  17 t-inv T
  0.200000 -0.400000 -0.200000    0.00800000  17 t-inv T
 -0.200000 -0.400000  0.200000    0.00800000  17 t-inv T
 -0.400000 -0.400000 -0.200000    0.00800000  18 t-inv T
  0.400000 -0.400000  0.200000    0.00800000  18 t-inv T
  0.400000 -0.400000 -0.200000    0.00800000  18 t-inv T
 -0.400000 -0.400000  0.200000    0.00800000  18 t-inv T
  0.000000 -0.200000 -0.400000    0.00800000  22 t-inv T
  0.000000 -0.200000  0.400000    0.00800000  22 t-inv T
 -0.200000 -0.200000 -0.400000    0.00800000  23 t-inv T
  0.200000 -0.200000  0.400000    0.00800000  23 t-inv T
  0.200000 -0.200000 -0.400000    0.00800000  23 t-inv T
 -0.200000 -0.200000  0.400000    0.00800000  23 t-inv T
 -0.400000 -0.200000 -0.400000    0.00800000  24 t-inv T
  0.400000 -0.200000  0.400000    0.00800000  24 t-inv T
  0.400000 -0.200000 -0.400000    0.00800000  24 t-inv T
 -0.400000 -0.200000  0.400000    0.00800000  24 t-inv T
  0.000000 -0.400000 -0.400000    0.00800000  25 t-inv T
  0.000000 -0.400000  0.400000    0.00800000  25 t-inv T
 -0.200000 -0.400000 -0.400000    0.00800000  26 t-inv T
  0.200000 -0.400000  0.400000    0.00800000  26 t-inv T
  0.200000 -0.400000 -0.400000    0.00800000  26 t-inv T
 -0.200000 -0.400000  0.400000    0.00800000  26 t-inv T
 -0.400000 -0.400000 -0.400000    0.00800000  27 t-inv T
  0.400000 -0.400000  0.400000    0.00800000  27 t-inv T
  0.400000 -0.400000 -0.400000    0.00800000  27 t-inv T
 -0.400000 -0.400000  0.400000    0.00800000  27 t-inv T


--------------------------------------------------------------------------------------------------------




 Dimension of arrays:
   k-points           NKPTS =     27   k-points in BZ     NKDIM =     27   number of bands    NBANDS=     70
   number of dos      NEDOS =    301   number of ions     NIONS =     10
   non local maximal  LDIM  =      6   non local SUM 2l+1 LMDIM =     18
   total plane-waves  NPLWV =  31104
   max r-space proj   IRMAX =   4852   max aug-charges    IRDMAX=  20267
   dimension x,y,z NGX =    36 NGY =   36 NGZ =   24
   dimension x,y,z NGXF=    72 NGYF=   72 NGZF=   48
   support grid    NGXF=    72 NGYF=   72 NGZF=   48
   ions per type =               2   2   6
   NGX,Y,Z   is equivalent  to a cutoff of  10.55, 10.53, 10.02 a.u.
   NGXF,Y,Z  is equivalent  to a cutoff of  21.10, 21.06, 20.05 a.u.

 SYSTEM =  KNbO3                                   
 POSCAR =  K2 Nb2 O6                               

 Startparameter for this run:
   NWRITE =      2    write-flag & timer
   PREC   = normal    normal or accurate (medium, high low for compatibility)
   ISTART =      0    job   : 0-new  1-cont  2-samecut
   ICHARG =      2    charge: 1-file 2-atom 10-const
   ISPIN  =      2    spin polarized calculation?
   LNONCOLLINEAR =      F non collinear calculations
   LSORBIT =      F    spin-orbit coupling
   INIWAV =      1    electr: 0-lowe 1-rand  2-diag
   LASPH  =      F    aspherical Exc in radial PAW
   METAGGA=      F    non-selfconsistent MetaGGA calc.

 Electronic Relaxation 1
   ENCUT  =  550.0 eV  40.42 Ry    6.36 a.u.  10.85 10.87  7.61*2*pi/ulx,y,z
   ENINI  =  550.0     initial cutoff
   ENAUG  =  605.4 eV  augmentation charge cutoff
   NELM   =     60;   NELMIN=  6; NELMDL=  0     # of ELM steps 
   EDIFF  = 0.1E-06   stopping-criterion for ELM
   LREAL  =      T    real-space projection
   NLSPLINE    = F    spline interpolate recip. space projectors
   LCOMPAT=      F    compatible to vasp.4.4
   GGA_COMPAT  = T    GGA compatible to vasp.4.4-vasp.4.6
   LMAXPAW     = -100 max onsite density
   LMAXMIX     =    2 max onsite mixed and CHGCAR
   VOSKOWN=      0    Vosko Wilk Nusair interpolation
   ROPT   =   -0.00050  -0.00050  -0.00050
 Ionic relaxation
   EDIFFG = 0.1E-05   stopping-criterion for IOM
   NSW    =      1    number of steps for IOM
   NBLOCK =      1;   KBLOCK =      1    inner block; outer block 
   IBRION =      8    ionic relax: 0-MD 1-quasi-New 2-CG
   NFREE  =      0    steps in history (QN), initial steepest desc. (CG)
   ISIF   =      3    stress and relaxation
   IWAVPR =     11    prediction:  0-non 1-charg 2-wave 3-comb
   ISYM   =      2    0-nonsym 1-usesym 2-fastsym
   LCORR  =      T    Harris-Foulkes like correction to forces

   POTIM  = 0.0150    time-step for ionic-motion
   TEIN   =    0.0    initial temperature
   TEBEG  =    0.0;   TEEND  =   0.0 temperature during run
   SMASS  =  -3.00    Nose mass-parameter (am)
   estimated Nose-frequenzy (Omega)   =  0.10E-29 period in steps =****** mass=  -0.736E-27a.u.
   SCALEE = 1.0000    scale energy and forces
   NPACO  =    256;   APACO  = 16.0  distance and # of slots for P.C.
   PSTRESS=    0.0 pullay stress

  Mass of Ions in am
   POMASS =  39.10 92.91 16.00
  Ionic Valenz
   ZVAL   =   7.00 11.00  6.00
  Atomic Wigner-Seitz radii
   RWIGS  =  -1.00 -1.00 -1.00
  virtual crystal weights 
   VCA    =   1.00  1.00  1.00
   NELECT =      72.0000    total number of electrons
   NUPDOWN=      -1.0000    fix difference up-down

 DOS related values:
   EMIN   =  10.00;   EMAX   =-10.00  energy-range for DOS
   EFERMI =   0.00
   ISMEAR =     0;   SIGMA  =   0.05  broadening in eV -4-tet -1-fermi 0-gaus

 Electronic relaxation 2 (details)
   IALGO  =     68    algorithm
   LDIAG  =      T    sub-space diagonalisation (order eigenvalues)
   LSUBROT=      F    optimize rotation matrix (better conditioning)
   TURBO    =      0    0=normal 1=particle mesh
   IRESTART =      0    0=no restart 2=restart with 2 vectors
   NREBOOT  =      0    no. of reboots
   NMIN     =      0    reboot dimension
   EREF     =   0.00    reference energy to select bands
   IMIX   =      4    mixing-type and parameters
     AMIX     =   0.40;   BMIX     =  1.00
     AMIX_MAG =   1.60;   BMIX_MAG =  1.00
     AMIN     =   0.10
     WC   =   100.;   INIMIX=   1;  MIXPRE=   1;  MAXMIX= -45

 Intra band minimization:
   WEIMIN = 0.0010     energy-eigenvalue tresh-hold
   EBREAK =  0.36E-09  absolut break condition
   DEPER  =   0.30     relativ break condition  

   TIME   =   0.40     timestep for ELM

  volume/ion in A,a.u.               =      12.83        86.60
  Fermi-wavevector in a.u.,A,eV,Ry     =   1.350262  2.551625 24.806243  1.823207
  Thomas-Fermi vector in A             =   2.477781
 
 Write flags
   LWAVE        =      T    write WAVECAR
   LDOWNSAMPLE  =      F    k-point downsampling of WAVECAR
   LCHARG       =      T    write CHGCAR
   LVTOT        =      F    write LOCPOT, total local potential
   LVHAR        =      F    write LOCPOT, Hartree potential only
   LELF         =      F    write electronic localiz. function (ELF)
   LORBIT       =     11    0 simple, 1 ext, 2 COOP (PROOUT), +10 PAW based schemes


 Dipole corrections
   LMONO  =      F    monopole corrections only (constant potential shift)
   LDIPOL =      F    correct potential (dipole corrections)
   IDIPOL =      0    1-x, 2-y, 3-z, 4-all directions 
   EPSILON=  1.0000000 bulk dielectric constant

 Exchange correlation treatment:
   GGA     =    --    GGA type
   LEXCH   =     2    internal setting for exchange type
   VOSKOWN=      0    Vosko Wilk Nusair interpolation
   LHFCALC =     F    Hartree Fock is set to
   LHFONE  =     F    Hartree Fock one center treatment
   AEXX    =    0.0000 exact exchange contribution

 Linear response parameters
   LEPSILON=     T    determine dielectric tensor
   LRPA    =     F    only Hartree local field effects (RPA)
   LNABLA  =     F    use nabla operator in PAW spheres
   LVEL    =     F    velocity operator in full k-point grid
   LINTERFAST=   F  fast interpolation
   KINTER  =     0    interpolate to denser k-point grid
   CSHIFT  =0.1000    complex shift for real part using Kramers Kronig
   OMEGAMAX=  -1.0    maximum frequency
   DEG_THRESHOLD= 0.2000000E-02 threshold for treating states as degnerate
   RTIME   =   -0.100 relaxation time in fs
  (WPLASMAI=    0.000 imaginary part of plasma frequency in eV, 0.658/RTIME)
   DFIELD  = 0.0000000 0.0000000 0.0000000 field for delta impulse in time
 
 Orbital magnetization related:
   ORBITALMAG=     F  switch on orbital magnetization
   LCHIMAG   =     F  perturbation theory with respect to B field
   DQ        =  0.001000  dq finite difference perturbation B field
   LLRAUG    =     F  two centre corrections for induced B field



--------------------------------------------------------------------------------------------------------


 linear response using symmetry
 charge density and potential will be updated during run
 spin polarized calculation
 RMM-DIIS sequential band-by-band and
  variant of blocked Davidson during initial phase
 perform sub-space diagonalisation
    before iterative eigenvector-optimisation
 modified Broyden-mixing scheme, WC =      100.0
 initial mixing is a Kerker type mixing with AMIX =  0.4000 and BMIX =      1.0000
 Hartree-type preconditioning will be used
 using additional bands           34
 real space projection scheme for non local part
 use partial core corrections
 calculate Harris-corrections to forces 
   (improved forces if not selfconsistent)
 use of overlap-Matrix (Vanderbilt PP)
 Gauss-broadening in eV      SIGMA  =   0.05


--------------------------------------------------------------------------------------------------------


  energy-cutoff  :      550.00
  volume of cell :      128.32
      direct lattice vectors                 reciprocal lattice vectors
     5.673595375  0.000000000  0.000000000     0.176255079 -0.000000000  0.000000000
     0.000000000  5.682695578  0.000000000     0.000000000  0.175972826  0.000000000
     0.000000000  0.000000000  3.980064524    -0.000000000 -0.000000000  0.251252208

  length of vectors
     5.673595375  5.682695578  3.980064524     0.176255079  0.175972826  0.251252208


 
 k-points in units of 2pi/SCALE and weight: K-Spacing Value to Generate K-Mesh: 0.05
   0.00000000  0.00000000  0.00000000       0.008
   0.03525102 -0.00000000  0.00000000       0.016
   0.07050203 -0.00000000  0.00000000       0.016
   0.00000000  0.03519457  0.00000000       0.016
   0.03525102  0.03519457  0.00000000       0.032
   0.07050203  0.03519457  0.00000000       0.032
   0.00000000  0.07038913  0.00000000       0.016
   0.03525102  0.07038913  0.00000000       0.032
   0.07050203  0.07038913  0.00000000       0.032
  -0.00000000 -0.00000000  0.05025044       0.016
   0.03525102 -0.00000000  0.05025044       0.032
   0.07050203 -0.00000000  0.05025044       0.032
  -0.00000000  0.03519457  0.05025044       0.032
   0.03525102  0.03519457  0.05025044       0.064
   0.07050203  0.03519457  0.05025044       0.064
  -0.00000000  0.07038913  0.05025044       0.032
   0.03525102  0.07038913  0.05025044       0.064
   0.07050203  0.07038913  0.05025044       0.064
  -0.00000000 -0.00000000  0.10050088       0.016
   0.03525102 -0.00000000  0.10050088       0.032
   0.07050203 -0.00000000  0.10050088       0.032
  -0.00000000  0.03519457  0.10050088       0.032
   0.03525102  0.03519457  0.10050088       0.064
   0.07050203  0.03519457  0.10050088       0.064
  -0.00000000  0.07038913  0.10050088       0.032
   0.03525102  0.07038913  0.10050088       0.064
   0.07050203  0.07038913  0.10050088       0.064
 
 k-points in reciprocal lattice and weights: K-Spacing Value to Generate K-Mesh: 0.05
   0.00000000  0.00000000  0.00000000       0.008
   0.20000000  0.00000000  0.00000000       0.016
   0.40000000  0.00000000  0.00000000       0.016
   0.00000000  0.20000000  0.00000000       0.016
   0.20000000  0.20000000  0.00000000       0.032
   0.40000000  0.20000000  0.00000000       0.032
   0.00000000  0.40000000  0.00000000       0.016
   0.20000000  0.40000000  0.00000000       0.032
   0.40000000  0.40000000  0.00000000       0.032
   0.00000000  0.00000000  0.20000000       0.016
   0.20000000  0.00000000  0.20000000       0.032
   0.40000000  0.00000000  0.20000000       0.032
   0.00000000  0.20000000  0.20000000       0.032
   0.20000000  0.20000000  0.20000000       0.064
   0.40000000  0.20000000  0.20000000       0.064
   0.00000000  0.40000000  0.20000000       0.032
   0.20000000  0.40000000  0.20000000       0.064
   0.40000000  0.40000000  0.20000000       0.064
   0.00000000  0.00000000  0.40000000       0.016
   0.20000000  0.00000000  0.40000000       0.032
   0.40000000  0.00000000  0.40000000       0.032
   0.00000000  0.20000000  0.40000000       0.032
   0.20000000  0.20000000  0.40000000       0.064
   0.40000000  0.20000000  0.40000000       0.064
   0.00000000  0.40000000  0.40000000       0.032
   0.20000000  0.40000000  0.40000000       0.064
   0.40000000  0.40000000  0.40000000       0.064
 
 position of ions in fractional coordinates (direct lattice) 
   0.50000000  0.01502391  0.50000000
   0.00000000  0.51502391  0.50000000
   0.50000000  0.50495719  0.00000000
   0.00000000  0.00495719  0.00000000
   0.75009026  0.77823654  0.00000000
   0.24990974  0.77823654  0.00000000
   0.50000000  0.53154581  0.50000000
   0.25009026  0.27823654  0.00000000
   0.74990974  0.27823654  0.00000000
   0.00000000  0.03154581  0.50000000
 
 position of ions in cartesian coordinates  (Angst):
   2.83679769  0.08537633  1.99003226
   0.00000000  2.92672412  1.99003226
   2.83679769  2.86951802  0.00000000
   0.00000000  0.02817023  0.00000000
   4.25570862  4.42248134  0.00000000
   1.41788675  4.42248134  0.00000000
   2.83679769  3.02061304  1.99003226
   1.41891094  1.58113355  0.00000000
   4.25468444  1.58113355  0.00000000
   0.00000000  0.17926525  1.99003226
 


--------------------------------------------------------------------------------------------------------


 k-point  1 :   0.0000 0.0000 0.0000  plane waves:    3771
 k-point  2 :   0.2000 0.0000 0.0000  plane waves:    3752
 k-point  3 :   0.4000 0.0000 0.0000  plane waves:    3758
 k-point  4 :   0.0000 0.2000 0.0000  plane waves:    3748
 k-point  5 :   0.2000 0.2000 0.0000  plane waves:    3759
 k-point  6 :   0.4000 0.2000 0.0000  plane waves:    3774
 k-point  7 :   0.0000 0.4000 0.0000  plane waves:    3762
 k-point  8 :   0.2000 0.4000 0.0000  plane waves:    3778
 k-point  9 :   0.4000 0.4000 0.0000  plane waves:    3770
 k-point 10 :   0.0000 0.0000 0.2000  plane waves:    3731
 k-point 11 :   0.2000 0.0000 0.2000  plane waves:    3756
 k-point 12 :   0.4000 0.0000 0.2000  plane waves:    3766
 k-point 13 :   0.0000 0.2000 0.2000  plane waves:    3761
 k-point 14 :   0.2000 0.2000 0.2000  plane waves:    3764
 k-point 15 :   0.4000 0.2000 0.2000  plane waves:    3765
 k-point 16 :   0.0000 0.4000 0.2000  plane waves:    3765
 k-point 17 :   0.2000 0.4000 0.2000  plane waves:    3768
 k-point 18 :   0.4000 0.4000 0.2000  plane waves:    3762
 k-point 19 :   0.0000 0.0000 0.4000  plane waves:    3780
 k-point 20 :   0.2000 0.0000 0.4000  plane waves:    3751
 k-point 21 :   0.4000 0.0000 0.4000  plane waves:    3742
 k-point 22 :   0.0000 0.2000 0.4000  plane waves:    3752
 k-point 23 :   0.2000 0.2000 0.4000  plane waves:    3745
 k-point 24 :   0.4000 0.2000 0.4000  plane waves:    3754
 k-point 25 :   0.0000 0.4000 0.4000  plane waves:    3746
 k-point 26 :   0.2000 0.4000 0.4000  plane waves:    3755
 k-point 27 :   0.4000 0.4000 0.4000  plane waves:    3757

 maximum and minimum number of plane-waves per node :      3780     3731

 maximum number of plane-waves:      3780
 maximum index in each direction: 
   IXMAX=   10   IYMAX=   10   IZMAX=    7
   IXMIN=  -11   IYMIN=  -11   IZMIN=   -8


 serial   3D FFT for wavefunctions
 parallel 3D FFT for charge:
    minimum data exchange during FFTs selected (reduces bandwidth)


 total amount of memory used by VASP MPI-rank0    56081. kBytes
=======================================================================

   base      :      30000. kBytes
   nonlr-proj:       3711. kBytes
   fftplans  :        830. kBytes
   grid      :       4416. kBytes
   one-center:        311. kBytes
   wavefun   :      16813. kBytes
 
     INWAV:  cpu time    0.0001: real time    0.0005
 Broyden mixing: mesh for mixing (old mesh)
   NGX = 21   NGY = 21   NGZ = 15
  (NGX  = 72   NGY  = 72   NGZ  = 48)
  gives a total of   6615 points

 initial charge density was supplied:
 charge density of overlapping atoms calculated
 number of electron      72.0000000 magnetization      50.0000000
 keeping initial charge density in first step


--------------------------------------------------------------------------------------------------------


 Maximum index for non-local projection operator         4669
 Maximum index for augmentation-charges         2087 (set IRDMAX)


--------------------------------------------------------------------------------------------------------


 First call to EWALD:  gamma=   0.351
 Maximum number of real-space cells 2x 2x 3
 Maximum number of reciprocal cells 3x 3x 2

    FEWALD:  cpu time    0.0016: real time    0.0016


--------------------------------------- Iteration      1(   1)  ---------------------------------------


    POTLOK:  cpu time    0.0136: real time    0.0156
    SETDIJ:  cpu time    0.0107: real time    0.0108
     EDDAV:  cpu time    8.1121: real time    8.1152
       DOS:  cpu time    0.0014: real time    0.0014
    --------------------------------------------
      LOOP:  cpu time    8.1379: real time    8.1430

 eigenvalue-minimisations  :  7574
 total energy-change (2. order) : 0.7643057E+03  (-0.3730394E+04)
 number of electron      72.0000000 magnetization      50.0000000
 augmentation part       72.0000000 magnetization      50.0000000

 Free energy of the ion-electron system (eV)
  ---------------------------------------------------
  alpha Z        PSCENC =       511.28641204
  Ewald energy   TEWEN  =     -4394.98551885
  -Hartree energ DENC   =     -1237.52621556
  -exchange      EXHF   =         0.00000000
  -V(xc)+E(xc)   XCENC  =       281.08258377
  PAW double counting   =      4381.34116351    -4366.17545586
  entropy T*S    EENTRO =        -0.00472743
  eigenvalues    EBANDS =         5.06952040
  atomic energy  EATOM  =      5584.21797005
  Solvation  Ediel_sol  =         0.00000000
  ---------------------------------------------------
  free energy    TOTEN  =       764.30573207 eV

  energy without entropy =      764.31045950  energy(sigma->0) =      764.30809579


--------------------------------------------------------------------------------------------------------




--------------------------------------- Iteration      1(   2)  ---------------------------------------


     EDDAV:  cpu time    8.2026: real time    8.2041
       DOS:  cpu time    0.0015: real time    0.0015
    --------------------------------------------
      LOOP:  cpu time    8.2041: real time    8.2056

 eigenvalue-minimisations  :  7588
 total energy-change (2. order) :-0.7140342E+03  (-0.6554092E+03)
 number of electron      72.0000000 magnetization      50.0000000
 augmentation part       72.0000000 magnetization      50.0000000

 Free energy of the ion-electron system (eV)
  ---------------------------------------------------
  alpha Z        PSCENC =       511.28641204
  Ewald energy   TEWEN  =     -4394.98551885
  -Hartree energ DENC   =     -1237.52621556
  -exchange      EXHF   =         0.00000000
  -V(xc)+E(xc)   XCENC  =       281.08258377
  PAW double counting   =      4381.34116351    -4366.17545586
  entropy T*S    EENTRO =        -0.00312853
  eigenvalues    EBANDS =      -708.96625594
  atomic energy  EATOM  =      5584.21797005
  Solvation  Ediel_sol  =         0.00000000
  ---------------------------------------------------
  free energy    TOTEN  =        50.27155464 eV

  energy without entropy =       50.27468317  energy(sigma->0) =       50.27311890


--------------------------------------------------------------------------------------------------------




--------------------------------------- Iteration      1(   3)  ---------------------------------------


     EDDAV:  cpu time    9.6153: real time    9.6166
       DOS:  cpu time    0.0013: real time    0.0013
    --------------------------------------------
      LOOP:  cpu time    9.6166: real time    9.6180

 eigenvalue-minimisations  :  9240
 total energy-change (2. order) :-0.6415245E+02  (-0.6271883E+02)
 number of electron      72.0000000 magnetization      50.0000000
 augmentation part       72.0000000 magnetization      50.0000000

 Free energy of the ion-electron system (eV)
  ---------------------------------------------------
  alpha Z        PSCENC =       511.28641204
  Ewald energy   TEWEN  =     -4394.98551885
  -Hartree energ DENC   =     -1237.52621556
  -exchange      EXHF   =         0.00000000
  -V(xc)+E(xc)   XCENC  =       281.08258377
  PAW double counting   =      4381.34116351    -4366.17545586
  entropy T*S    EENTRO =        -0.00049876
  eigenvalues    EBANDS =      -773.12133117
  atomic energy  EATOM  =      5584.21797005
  Solvation  Ediel_sol  =         0.00000000
  ---------------------------------------------------
  free energy    TOTEN  =       -13.88089083 eV

  energy without entropy =      -13.88039207  energy(sigma->0) =      -13.88064145


--------------------------------------------------------------------------------------------------------




--------------------------------------- Iteration      1(   4)  ---------------------------------------


     EDDAV:  cpu time    9.0875: real time    9.0890
       DOS:  cpu time    0.0013: real time    0.0013
    --------------------------------------------
      LOOP:  cpu time    9.0888: real time    9.0904

 eigenvalue-minimisations  :  8596
 total energy-change (2. order) :-0.1337269E+01  (-0.1335279E+01)
 number of electron      72.0000000 magnetization      50.0000000
 augmentation part       72.0000000 magnetization      50.0000000

 Free energy of the ion-electron system (eV)
  ---------------------------------------------------
  alpha Z        PSCENC =       511.28641204
  Ewald energy   TEWEN  =     -4394.98551885
  -Hartree energ DENC   =     -1237.52621556
  -exchange      EXHF   =         0.00000000
  -V(xc)+E(xc)   XCENC  =       281.08258377
  PAW double counting   =      4381.34116351    -4366.17545586
  entropy T*S    EENTRO =        -0.00042909
  eigenvalues    EBANDS =      -774.45867003
  atomic energy  EATOM  =      5584.21797005
  Solvation  Ediel_sol  =         0.00000000
  ---------------------------------------------------
  free energy    TOTEN  =       -15.21816001 eV

  energy without entropy =      -15.21773093  energy(sigma->0) =      -15.21794547


--------------------------------------------------------------------------------------------------------




--------------------------------------- Iteration      1(   5)  ---------------------------------------


     EDDAV:  cpu time    9.8095: real time    9.8112
       DOS:  cpu time    0.0013: real time    0.0013
    CHARGE:  cpu time    0.1531: real time    0.1531
    MIXING:  cpu time    0.0011: real time    0.0011
    --------------------------------------------
      LOOP:  cpu time    9.9650: real time    9.9667

 eigenvalue-minimisations  :  9478
 total energy-change (2. order) :-0.2258907E-01  (-0.2258518E-01)
 number of electron      71.9999969 magnetization       6.0040053
 augmentation part       19.2888803 magnetization       6.6712744

 Broyden mixing:
  rms(total) = 0.10088E+02    rms(broyden)= 0.10088E+02
  rms(prec ) = 0.10652E+02
  weight for this iteration     100.00

 Free energy of the ion-electron system (eV)
  ---------------------------------------------------
  alpha Z        PSCENC =       511.28641204
  Ewald energy   TEWEN  =     -4394.98551885
  -Hartree energ DENC   =     -1237.52621556
  -exchange      EXHF   =         0.00000000
  -V(xc)+E(xc)   XCENC  =       281.08258377
  PAW double counting   =      4381.34116351    -4366.17545586
  entropy T*S    EENTRO =        -0.00042831
  eigenvalues    EBANDS =      -774.48125987
  atomic energy  EATOM  =      5584.21797005
  Solvation  Ediel_sol  =         0.00000000
  ---------------------------------------------------
  free energy    TOTEN  =       -15.24074908 eV

  energy without entropy =      -15.24032077  energy(sigma->0) =      -15.24053493


--------------------------------------------------------------------------------------------------------




--------------------------------------- Iteration      1(   6)  ---------------------------------------


    POTLOK:  cpu time    0.0097: real time    0.0105
    SETDIJ:  cpu time    0.0089: real time    0.0089
    EDDIAG:  cpu time    0.9712: real time    0.9713
  RMM-DIIS:  cpu time    3.2785: real time    3.2788
    ORTHCH:  cpu time    0.1688: real time    0.1688
       DOS:  cpu time    0.0005: real time    0.0005
    CHARGE:  cpu time    0.1539: real time    0.1539
    MIXING:  cpu time    0.0014: real time    0.0014
    --------------------------------------------
      LOOP:  cpu time    4.5930: real time    4.5943

 eigenvalue-minimisations  :  7684
 total energy-change (2. order) :-0.5740966E+02  (-0.5544848E+01)
 number of electron      71.9999974 magnetization       0.8565169
 augmentation part       19.2747820 magnetization       0.4256388

 Broyden mixing:
  rms(total) = 0.31109E+01    rms(broyden)= 0.31104E+01
  rms(prec ) = 0.31601E+01
  weight for this iteration     100.00

 eigenvalues of (default mixing * dielectric matrix)
  average eigenvalue GAMMA=   0.8813
  0.8813

 Free energy of the ion-electron system (eV)
  ---------------------------------------------------
  alpha Z        PSCENC =       511.28641204
  Ewald energy   TEWEN  =     -4394.98551885
  -Hartree energ DENC   =     -1277.86213440
  -exchange      EXHF   =         0.00000000
  -V(xc)+E(xc)   XCENC  =       259.76405718
  PAW double counting   =      5784.88554235    -5776.99304931
  entropy T*S    EENTRO =        -0.00000000
  eigenvalues    EBANDS =      -762.96368320
  atomic energy  EATOM  =      5584.21797005
  Solvation  Ediel_sol  =         0.00000000
  ---------------------------------------------------
  free energy    TOTEN  =       -72.65040413 eV

  energy without entropy =      -72.65040413  energy(sigma->0) =      -72.65040413


--------------------------------------------------------------------------------------------------------




--------------------------------------- Iteration      1(   7)  ---------------------------------------


    POTLOK:  cpu time    0.0101: real time    0.0110
    SETDIJ:  cpu time    0.0093: real time    0.0093
    EDDIAG:  cpu time    0.9888: real time    0.9889
  RMM-DIIS:  cpu time    3.4145: real time    3.4148
    ORTHCH:  cpu time    0.1802: real time    0.1802
       DOS:  cpu time    0.0006: real time    0.0006
    CHARGE:  cpu time    0.1730: real time    0.1730
    MIXING:  cpu time    0.0012: real time    0.0012
    --------------------------------------------
      LOOP:  cpu time    4.7778: real time    4.7790

 eigenvalue-minimisations  :  7812
 total energy-change (2. order) :-0.1175073E+02  (-0.6672853E+00)
 number of electron      71.9999975 magnetization      -0.3201300
 augmentation part       19.1933764 magnetization      -0.3335812

 Broyden mixing:
  rms(total) = 0.15754E+01    rms(broyden)= 0.15754E+01
  rms(prec ) = 0.16145E+01
  weight for this iteration     100.00

 eigenvalues of (default mixing * dielectric matrix)
  average eigenvalue GAMMA=   0.9580
  1.1248  0.7912

 Free energy of the ion-electron system (eV)
  ---------------------------------------------------
  alpha Z        PSCENC =       511.28641204
  Ewald energy   TEWEN  =     -4394.98551885
  -Hartree energ DENC   =     -1276.27456817
  -exchange      EXHF   =         0.00000000
  -V(xc)+E(xc)   XCENC  =       252.21592133
  PAW double counting   =      6700.14209446    -6694.71048570
  entropy T*S    EENTRO =        -0.00000000
  eigenvalues    EBANDS =      -766.29295631
  atomic energy  EATOM  =      5584.21797005
  Solvation  Ediel_sol  =         0.00000000
  ---------------------------------------------------
  free energy    TOTEN  =       -84.40113115 eV

  energy without entropy =      -84.40113115  energy(sigma->0) =      -84.40113115


--------------------------------------------------------------------------------------------------------




--------------------------------------- Iteration      1(   8)  ---------------------------------------


    POTLOK:  cpu time    0.0104: real time    0.0112
    SETDIJ:  cpu time    0.0096: real time    0.0096
    EDDIAG:  cpu time    0.9825: real time    0.9826
  RMM-DIIS:  cpu time    3.3499: real time    3.3501
    ORTHCH:  cpu time    0.1742: real time    0.1741
       DOS:  cpu time    0.0006: real time    0.0006
    CHARGE:  cpu time    0.1605: real time    0.1605
    MIXING:  cpu time    0.0010: real time    0.0010
    --------------------------------------------
      LOOP:  cpu time    4.6886: real time    4.6897

 eigenvalue-minimisations  :  7592
 total energy-change (2. order) : 0.1883277E+00  (-0.8210204E-01)
 number of electron      71.9999974 magnetization      -0.3588014
 augmentation part       19.2587916 magnetization      -0.3472263

 Broyden mixing:
  rms(total) = 0.70479E+00    rms(broyden)= 0.70478E+00
  rms(prec ) = 0.72860E+00
  weight for this iteration     100.00

 eigenvalues of (default mixing * dielectric matrix)
  average eigenvalue GAMMA=   1.1742
  1.9047  0.9062  0.7117

 Free energy of the ion-electron system (eV)
  ---------------------------------------------------
  alpha Z        PSCENC =       511.28641204
  Ewald energy   TEWEN  =     -4394.98551885
  -Hartree energ DENC   =     -1266.74089678
  -exchange      EXHF   =         0.00000000
  -V(xc)+E(xc)   XCENC  =       251.38888409
  PAW double counting   =      7449.11828655    -7445.13568457
  entropy T*S    EENTRO =        -0.00000000
  eigenvalues    EBANDS =      -773.36225601
  atomic energy  EATOM  =      5584.21797005
  Solvation  Ediel_sol  =         0.00000000
  ---------------------------------------------------
  free energy    TOTEN  =       -84.21280347 eV

  energy without entropy =      -84.21280347  energy(sigma->0) =      -84.21280347


--------------------------------------------------------------------------------------------------------




--------------------------------------- Iteration      1(   9)  ---------------------------------------


    POTLOK:  cpu time    0.0101: real time    0.0109
    SETDIJ:  cpu time    0.0092: real time    0.0092
    EDDIAG:  cpu time    1.0405: real time    1.0405
  RMM-DIIS:  cpu time    3.3940: real time    3.3943
    ORTHCH:  cpu time    0.1740: real time    0.1740
       DOS:  cpu time    0.0006: real time    0.0006
    CHARGE:  cpu time    0.1576: real time    0.1576
    MIXING:  cpu time    0.0010: real time    0.0010
    --------------------------------------------
      LOOP:  cpu time    4.7870: real time    4.7881

 eigenvalue-minimisations  :  7635
 total energy-change (2. order) : 0.1186400E+00  (-0.7988846E-02)
 number of electron      71.9999974 magnetization      -0.0802435
 augmentation part       19.2864935 magnetization      -0.0777710

 Broyden mixing:
  rms(total) = 0.12894E+00    rms(broyden)= 0.12893E+00
  rms(prec ) = 0.13569E+00
  weight for this iteration     100.00

 eigenvalues of (default mixing * dielectric matrix)
  average eigenvalue GAMMA=   1.1526
  2.1142  0.9099  0.9099  0.6763

 Free energy of the ion-electron system (eV)
  ---------------------------------------------------
  alpha Z        PSCENC =       511.28641204
  Ewald energy   TEWEN  =     -4394.98551885
  -Hartree energ DENC   =     -1265.56707055
  -exchange      EXHF   =         0.00000000
  -V(xc)+E(xc)   XCENC  =       251.35321428
  PAW double counting   =      8042.91977663    -8040.25886236
  entropy T*S    EENTRO =        -0.00000000
  eigenvalues    EBANDS =      -773.06008475
  atomic energy  EATOM  =      5584.21797005
  Solvation  Ediel_sol  =         0.00000000
  ---------------------------------------------------
  free energy    TOTEN  =       -84.09416351 eV

  energy without entropy =      -84.09416351  energy(sigma->0) =      -84.09416351


--------------------------------------------------------------------------------------------------------




--------------------------------------- Iteration      1(  10)  ---------------------------------------


    POTLOK:  cpu time    0.0100: real time    0.0110
    SETDIJ:  cpu time    0.0090: real time    0.0090
    EDDIAG:  cpu time    1.0027: real time    1.0029
  RMM-DIIS:  cpu time    3.4277: real time    3.4280
    ORTHCH:  cpu time    0.1807: real time    0.1807
       DOS:  cpu time    0.0009: real time    0.0009
    CHARGE:  cpu time    0.1607: real time    0.1607
    MIXING:  cpu time    0.0011: real time    0.0011
    --------------------------------------------
      LOOP:  cpu time    4.7928: real time    4.7942

 eigenvalue-minimisations  :  7891
 total energy-change (2. order) : 0.1353038E-01  (-0.7622065E-03)
 number of electron      71.9999974 magnetization       0.0034119
 augmentation part       19.2840812 magnetization       0.0111946

 Broyden mixing:
  rms(total) = 0.43863E-01    rms(broyden)= 0.43862E-01
  rms(prec ) = 0.49125E-01
  weight for this iteration     100.00

 eigenvalues of (default mixing * dielectric matrix)
  average eigenvalue GAMMA=   1.1440
  2.2232  1.1165  0.9791  0.7691  0.6321

 Free energy of the ion-electron system (eV)
  ---------------------------------------------------
  alpha Z        PSCENC =       511.28641204
  Ewald energy   TEWEN  =     -4394.98551885
  -Hartree energ DENC   =     -1266.73292336
  -exchange      EXHF   =         0.00000000
  -V(xc)+E(xc)   XCENC  =       251.40487298
  PAW double counting   =      8116.25047459    -8113.77324570
  entropy T*S    EENTRO =        -0.00000000
  eigenvalues    EBANDS =      -771.74867488
  atomic energy  EATOM  =      5584.21797005
  Solvation  Ediel_sol  =         0.00000000
  ---------------------------------------------------
  free energy    TOTEN  =       -84.08063313 eV

  energy without entropy =      -84.08063313  energy(sigma->0) =      -84.08063313


--------------------------------------------------------------------------------------------------------




--------------------------------------- Iteration      1(  11)  ---------------------------------------


    POTLOK:  cpu time    0.0096: real time    0.0100
    SETDIJ:  cpu time    0.0086: real time    0.0086
    EDDIAG:  cpu time    1.0126: real time    1.0127
  RMM-DIIS:  cpu time    3.4243: real time    3.4248
    ORTHCH:  cpu time    0.1703: real time    0.1704
       DOS:  cpu time    0.0005: real time    0.0005
    CHARGE:  cpu time    0.1506: real time    0.1506
    MIXING:  cpu time    0.0012: real time    0.0012
    --------------------------------------------
      LOOP:  cpu time    4.7779: real time    4.7788

 eigenvalue-minimisations  :  7604
 total energy-change (2. order) : 0.2876468E-02  (-0.2173439E-03)
 number of electron      71.9999974 magnetization       0.0003914
 augmentation part       19.2806096 magnetization       0.0001852

 Broyden mixing:
  rms(total) = 0.19900E-01    rms(broyden)= 0.19899E-01
  rms(prec ) = 0.22355E-01
  weight for this iteration     100.00

 eigenvalues of (default mixing * dielectric matrix)
  average eigenvalue GAMMA=   1.0686
  2.2491  1.1210  0.9571  0.7323  0.7323  0.6200

 Free energy of the ion-electron system (eV)
  ---------------------------------------------------
  alpha Z        PSCENC =       511.28641204
  Ewald energy   TEWEN  =     -4394.98551885
  -Hartree energ DENC   =     -1267.55702935
  -exchange      EXHF   =         0.00000000
  -V(xc)+E(xc)   XCENC  =       251.44869594
  PAW double counting   =      8143.54789298    -8141.15180906
  entropy T*S    EENTRO =        -0.00000000
  eigenvalues    EBANDS =      -770.88437041
  atomic energy  EATOM  =      5584.21797005
  Solvation  Ediel_sol  =         0.00000000
  ---------------------------------------------------
  free energy    TOTEN  =       -84.07775666 eV

  energy without entropy =      -84.07775666  energy(sigma->0) =      -84.07775666


--------------------------------------------------------------------------------------------------------




--------------------------------------- Iteration      1(  12)  ---------------------------------------


    POTLOK:  cpu time    0.0097: real time    0.0104
    SETDIJ:  cpu time    0.0099: real time    0.0099
    EDDIAG:  cpu time    1.0097: real time    1.0098
  RMM-DIIS:  cpu time    3.3468: real time    3.3470
    ORTHCH:  cpu time    0.1766: real time    0.1766
       DOS:  cpu time    0.0007: real time    0.0007
    CHARGE:  cpu time    0.1715: real time    0.1715
    MIXING:  cpu time    0.0012: real time    0.0012
    --------------------------------------------
      LOOP:  cpu time    4.7260: real time    4.7269

 eigenvalue-minimisations  :  7594
 total energy-change (2. order) : 0.1909732E-03  (-0.2861691E-04)
 number of electron      71.9999974 magnetization       0.0013117
 augmentation part       19.2790199 magnetization       0.0019125

 Broyden mixing:
  rms(total) = 0.12474E-01    rms(broyden)= 0.12473E-01
  rms(prec ) = 0.13444E-01
  weight for this iteration     100.00

 eigenvalues of (default mixing * dielectric matrix)
  average eigenvalue GAMMA=   1.1068
  2.3141  1.4344  1.0691  0.9652  0.7550  0.6328  0.5768

 Free energy of the ion-electron system (eV)
  ---------------------------------------------------
  alpha Z        PSCENC =       511.28641204
  Ewald energy   TEWEN  =     -4394.98551885
  -Hartree energ DENC   =     -1267.91850073
  -exchange      EXHF   =         0.00000000
  -V(xc)+E(xc)   XCENC  =       251.47023140
  PAW double counting   =      8156.52118596    -8154.16536595
  entropy T*S    EENTRO =        -0.00000000
  eigenvalues    EBANDS =      -770.50397960
  atomic energy  EATOM  =      5584.21797005
  Solvation  Ediel_sol  =         0.00000000
  ---------------------------------------------------
  free energy    TOTEN  =       -84.07756569 eV

  energy without entropy =      -84.07756569  energy(sigma->0) =      -84.07756569


--------------------------------------------------------------------------------------------------------




--------------------------------------- Iteration      1(  13)  ---------------------------------------


    POTLOK:  cpu time    0.0101: real time    0.0111
    SETDIJ:  cpu time    0.0092: real time    0.0092
    EDDIAG:  cpu time    1.0162: real time    1.0162
  RMM-DIIS:  cpu time    3.4882: real time    3.4884
    ORTHCH:  cpu time    0.1700: real time    0.1700
       DOS:  cpu time    0.0006: real time    0.0006
    CHARGE:  cpu time    0.1534: real time    0.1534
    MIXING:  cpu time    0.0015: real time    0.0015
    --------------------------------------------
      LOOP:  cpu time    4.8492: real time    4.8504

 eigenvalue-minimisations  :  7655
 total energy-change (2. order) : 0.2988674E-05  (-0.7972646E-05)
 number of electron      71.9999974 magnetization      -0.0000039
 augmentation part       19.2779766 magnetization       0.0000495

 Broyden mixing:
  rms(total) = 0.36687E-02    rms(broyden)= 0.36685E-02
  rms(prec ) = 0.41996E-02
  weight for this iteration     100.00

 eigenvalues of (default mixing * dielectric matrix)
  average eigenvalue GAMMA=   1.1978
  2.6322  1.9644  1.1383  0.9956  0.8538  0.7317  0.6505  0.6157

 Free energy of the ion-electron system (eV)
  ---------------------------------------------------
  alpha Z        PSCENC =       511.28641204
  Ewald energy   TEWEN  =     -4394.98551885
  -Hartree energ DENC   =     -1268.09861306
  -exchange      EXHF   =         0.00000000
  -V(xc)+E(xc)   XCENC  =       251.47894293
  PAW double counting   =      8163.96077064    -8161.62524706
  entropy T*S    EENTRO =        -0.00000000
  eigenvalues    EBANDS =      -770.31227940
  atomic energy  EATOM  =      5584.21797005
  Solvation  Ediel_sol  =         0.00000000
  ---------------------------------------------------
  free energy    TOTEN  =       -84.07756270 eV

  energy without entropy =      -84.07756270  energy(sigma->0) =      -84.07756270


--------------------------------------------------------------------------------------------------------




--------------------------------------- Iteration      1(  14)  ---------------------------------------


    POTLOK:  cpu time    0.0104: real time    0.0108
    SETDIJ:  cpu time    0.0096: real time    0.0096
    EDDIAG:  cpu time    1.0092: real time    1.0092
  RMM-DIIS:  cpu time    3.3672: real time    3.3674
    ORTHCH:  cpu time    0.1731: real time    0.1731
       DOS:  cpu time    0.0007: real time    0.0007
    CHARGE:  cpu time    0.1664: real time    0.1664
    MIXING:  cpu time    0.0014: real time    0.0014
    --------------------------------------------
      LOOP:  cpu time    4.7379: real time    4.7385

 eigenvalue-minimisations  :  7605
 total energy-change (2. order) :-0.2797676E-05  (-0.9096304E-06)
 number of electron      71.9999974 magnetization      -0.0000251
 augmentation part       19.2779459 magnetization      -0.0000293

 Broyden mixing:
  rms(total) = 0.14210E-02    rms(broyden)= 0.14209E-02
  rms(prec ) = 0.16119E-02
  weight for this iteration     100.00

 eigenvalues of (default mixing * dielectric matrix)
  average eigenvalue GAMMA=   1.1988
  2.6222  2.0269  1.2615  1.1455  0.9712  0.8137  0.7126  0.6339  0.6017

 Free energy of the ion-electron system (eV)
  ---------------------------------------------------
  alpha Z        PSCENC =       511.28641204
  Ewald energy   TEWEN  =     -4394.98551885
  -Hartree energ DENC   =     -1268.10006353
  -exchange      EXHF   =         0.00000000
  -V(xc)+E(xc)   XCENC  =       251.47810126
  PAW double counting   =      8167.72192764    -8165.39174585
  entropy T*S    EENTRO =        -0.00000000
  eigenvalues    EBANDS =      -770.30464825
  atomic energy  EATOM  =      5584.21797005
  Solvation  Ediel_sol  =         0.00000000
  ---------------------------------------------------
  free energy    TOTEN  =       -84.07756549 eV

  energy without entropy =      -84.07756549  energy(sigma->0) =      -84.07756549


--------------------------------------------------------------------------------------------------------




--------------------------------------- Iteration      1(  15)  ---------------------------------------


    POTLOK:  cpu time    0.0099: real time    0.0107
    SETDIJ:  cpu time    0.0094: real time    0.0094
    EDDIAG:  cpu time    1.0078: real time    1.0078
  RMM-DIIS:  cpu time    3.4703: real time    3.4706
    ORTHCH:  cpu time    0.1747: real time    0.1747
       DOS:  cpu time    0.0007: real time    0.0007
    CHARGE:  cpu time    0.1629: real time    0.1629
    MIXING:  cpu time    0.0015: real time    0.0015
    --------------------------------------------
      LOOP:  cpu time    4.8372: real time    4.8383

 eigenvalue-minimisations  :  7579
 total energy-change (2. order) : 0.2729830E-06  (-0.1634468E-06)
 number of electron      71.9999974 magnetization      -0.0000210
 augmentation part       19.2781263 magnetization      -0.0000194

 Broyden mixing:
  rms(total) = 0.79892E-03    rms(broyden)= 0.79892E-03
  rms(prec ) = 0.82684E-03
  weight for this iteration     100.00

 eigenvalues of (default mixing * dielectric matrix)
  average eigenvalue GAMMA=   1.1886
  2.5827  2.1633  1.4547  1.1269  0.9743  0.9178  0.7685  0.6905  0.6258  0.5816

 Free energy of the ion-electron system (eV)
  ---------------------------------------------------
  alpha Z        PSCENC =       511.28641204
  Ewald energy   TEWEN  =     -4394.98551885
  -Hartree energ DENC   =     -1268.07364667
  -exchange      EXHF   =         0.00000000
  -V(xc)+E(xc)   XCENC  =       251.47655632
  PAW double counting   =      8166.95596689    -8164.62084585
  entropy T*S    EENTRO =        -0.00000000
  eigenvalues    EBANDS =      -770.33445916
  atomic energy  EATOM  =      5584.21797005
  Solvation  Ediel_sol  =         0.00000000
  ---------------------------------------------------
  free energy    TOTEN  =       -84.07756522 eV

  energy without entropy =      -84.07756522  energy(sigma->0) =      -84.07756522


--------------------------------------------------------------------------------------------------------




--------------------------------------- Iteration      1(  16)  ---------------------------------------


    POTLOK:  cpu time    0.0098: real time    0.0107
    SETDIJ:  cpu time    0.0091: real time    0.0091
    EDDIAG:  cpu time    1.0199: real time    1.0200
  RMM-DIIS:  cpu time    2.4319: real time    2.4321
    ORTHCH:  cpu time    0.1801: real time    0.1802
       DOS:  cpu time    0.0006: real time    0.0006
    --------------------------------------------
      LOOP:  cpu time    3.6515: real time    3.6526

 eigenvalue-minimisations  :  5610
 total energy-change (2. order) : 0.3484274E-07  (-0.9191871E-08)
 number of electron      71.9999974 magnetization      -0.0000210
 augmentation part       19.2781263 magnetization      -0.0000194

 Free energy of the ion-electron system (eV)
  ---------------------------------------------------
  alpha Z        PSCENC =       511.28641204
  Ewald energy   TEWEN  =     -4394.98551885
  -Hartree energ DENC   =     -1268.07206591
  -exchange      EXHF   =         0.00000000
  -V(xc)+E(xc)   XCENC  =       251.47639077
  PAW double counting   =      8166.43146178    -8164.09407948
  entropy T*S    EENTRO =        -0.00000000
  eigenvalues    EBANDS =      -770.33813560
  atomic energy  EATOM  =      5584.21797005
  Solvation  Ediel_sol  =         0.00000000
  ---------------------------------------------------
  free energy    TOTEN  =       -84.07756519 eV

  energy without entropy =      -84.07756519  energy(sigma->0) =      -84.07756519


--------------------------------------------------------------------------------------------------------




 average (electrostatic) potential at core
  the test charge radii are     1.3383  1.2165  0.7215
  (the norm of the test charge is              1.0000)
       1 -11.7839       2 -11.7839       3 -40.3158       4 -40.3158       5 -74.4804
       6 -74.4804       7 -74.4342       8 -74.4804       9 -74.4804      10 -74.4342
 
 
 
 E-fermi :   0.3441     XC(G=0): -11.2900     alpha+bet : -9.8439


 spin component 1

 k-point     1 :       0.0000    0.0000    0.0000
  band No.  band energies     occupation 
[...]
      2.836798  3.020613  1.990032     0.000000    0.570367   -0.000000  
      1.418911  1.581134  0.000000     0.221946   -0.180869   -0.000000  
      4.254684  1.581134  0.000000    -0.221946   -0.180869    0.000000  
      0.000000  0.179265  1.990032    -0.000000    0.570367   -0.000000  
 
  14 f  =    6.647052 THz    41.764662 2PiTHz  221.721798 cm-1    27.490009 meV
             X         Y         Z           dx          dy          dz
      2.836798  0.085376  1.990032    -0.223692   -0.000000    0.000000  
      0.000000  2.926724  1.990032     0.223692    0.000000   -0.000000  
      2.836798  2.869518  0.000000    -0.272473   -0.000000    0.000000  
      0.000000  0.028170  0.000000     0.272473   -0.000000   -0.000000  
      4.255709  4.422481  0.000000     0.022872    0.037979    0.000000  
      1.417887  4.422481  0.000000     0.022872   -0.037979   -0.000000  
      2.836798  3.020613  1.990032    -0.609745    0.000000   -0.000000  
      1.418911  1.581134  0.000000    -0.022872   -0.037979    0.000000  
      4.254684  1.581134  0.000000    -0.022872    0.037979   -0.000000  
      0.000000  0.179265  1.990032     0.609745    0.000000   -0.000000  
 
  15 f  =    6.410481 THz    40.278240 2PiTHz  213.830623 cm-1    26.511628 meV
             X         Y         Z           dx          dy          dz
      2.836798  0.085376  1.990032    -0.000000    0.073363    0.000000  
      0.000000  2.926724  1.990032     0.000000    0.073363    0.000000  
      2.836798  2.869518  0.000000    -0.000000   -0.459271    0.000000  
      0.000000  0.028170  0.000000    -0.000000   -0.459271   -0.000000  
      4.255709  4.422481  0.000000    -0.138888    0.312721    0.000000  
      1.417887  4.422481  0.000000     0.138888    0.312721   -0.000000  
      2.836798  3.020613  1.990032    -0.000000    0.222530   -0.000000  
      1.418911  1.581134  0.000000    -0.138888    0.312721   -0.000000  
      4.254684  1.581134  0.000000     0.138888    0.312721    0.000000  
      0.000000  0.179265  1.990032     0.000000    0.222530   -0.000000  
 
  16 f  =    5.841674 THz    36.704320 2PiTHz  194.857263 cm-1    24.159230 meV
             X         Y         Z           dx          dy          dz
      2.836798  0.085376  1.990032     0.029378   -0.000000   -0.000000  
      0.000000  2.926724  1.990032     0.029378   -0.000000   -0.000000  
      2.836798  2.869518  0.000000     0.034681    0.000000    0.000000  
      0.000000  0.028170  0.000000     0.034681    0.000000    0.000000  
      4.255709  4.422481  0.000000    -0.271613    0.265734    0.000000  
      1.417887  4.422481  0.000000    -0.271613   -0.265734   -0.000000  
      2.836798  3.020613  1.990032     0.457337   -0.000000   -0.000000  
      1.418911  1.581134  0.000000    -0.271613    0.265734    0.000000  
      4.254684  1.581134  0.000000    -0.271613   -0.265734   -0.000000  
      0.000000  0.179265  1.990032     0.457337   -0.000000   -0.000000  
 
  17 f  =    5.620064 THz    35.311905 2PiTHz  187.465156 cm-1    23.242725 meV
             X         Y         Z           dx          dy          dz
      2.836798  0.085376  1.990032    -0.315456   -0.000000   -0.000000  
      0.000000  2.926724  1.990032    -0.315456   -0.000000   -0.000000  
      2.836798  2.869518  0.000000     0.524451    0.000000    0.000000  
      0.000000  0.028170  0.000000     0.524451    0.000000    0.000000  
      4.255709  4.422481  0.000000    -0.160643    0.046022    0.000000  
      1.417887  4.422481  0.000000    -0.160643   -0.046022   -0.000000  
      2.836798  3.020613  1.990032    -0.263800   -0.000000    0.000000  
      1.418911  1.581134  0.000000    -0.160643    0.046022    0.000000  
      4.254684  1.581134  0.000000    -0.160643   -0.046022   -0.000000  
      0.000000  0.179265  1.990032    -0.263800    0.000000    0.000000  
 
  18 f  =    5.476801 THz    34.411753 2PiTHz  182.686399 cm-1    22.650235 meV
             X         Y         Z           dx          dy          dz
      2.836798  0.085376  1.990032     0.000000    0.000000    0.000000  
      0.000000  2.926724  1.990032     0.000000   -0.000000    0.000000  
      2.836798  2.869518  0.000000    -0.000000   -0.000000   -0.000000  
      0.000000  0.028170  0.000000    -0.000000   -0.000000   -0.000000  
      4.255709  4.422481  0.000000     0.000000   -0.000000    0.500000  
      1.417887  4.422481  0.000000     0.000000    0.000000   -0.500000  
      2.836798  3.020613  1.990032    -0.000000    0.000000   -0.000000  
      1.418911  1.581134  0.000000     0.000000   -0.000000    0.500000  
      4.254684  1.581134  0.000000     0.000000    0.000000   -0.500000  
      0.000000  0.179265  1.990032    -0.000000   -0.000000   -0.000000  
 
  19 f  =    5.208829 THz    32.728039 2PiTHz  173.747836 cm-1    21.541994 meV
             X         Y         Z           dx          dy          dz
      2.836798  0.085376  1.990032    -0.000000    0.625977    0.000000  
      0.000000  2.926724  1.990032     0.000000    0.625977    0.000000  
      2.836798  2.869518  0.000000     0.000000   -0.193292   -0.000000  
      0.000000  0.028170  0.000000     0.000000   -0.193292   -0.000000  
      4.255709  4.422481  0.000000     0.017271   -0.154041    0.000000  
      1.417887  4.422481  0.000000    -0.017271   -0.154041    0.000000  
      2.836798  3.020613  1.990032    -0.000000   -0.150790   -0.000000  
      1.418911  1.581134  0.000000     0.017271   -0.154041   -0.000000  
      4.254684  1.581134  0.000000    -0.017271   -0.154041   -0.000000  
      0.000000  0.179265  1.990032     0.000000   -0.150790   -0.000000  
 
  20 f  =    5.108088 THz    32.095065 2PiTHz  170.387480 cm-1    21.125363 meV
             X         Y         Z           dx          dy          dz
      2.836798  0.085376  1.990032    -0.000000   -0.000000    0.628152  
      0.000000  2.926724  1.990032    -0.000000   -0.000000    0.628152  
      2.836798  2.869518  0.000000     0.000000    0.000000   -0.289654  
      0.000000  0.028170  0.000000     0.000000    0.000000   -0.289654  
      4.255709  4.422481  0.000000    -0.000000    0.000000   -0.085259  
      1.417887  4.422481  0.000000    -0.000000   -0.000000   -0.085259  
      2.836798  3.020613  1.990032     0.000000    0.000000   -0.083590  
      1.418911  1.581134  0.000000     0.000000    0.000000   -0.085259  
      4.254684  1.581134  0.000000    -0.000000   -0.000000   -0.085259  
      0.000000  0.179265  1.990032     0.000000    0.000000   -0.083590  
 
  21 f  =    4.920977 THz    30.919410 2PiTHz  164.146116 cm-1    20.351532 meV
             X         Y         Z           dx          dy          dz
      2.836798  0.085376  1.990032    -0.544718   -0.000000   -0.000000  
      0.000000  2.926724  1.990032    -0.544718    0.000000   -0.000000  
      2.836798  2.869518  0.000000    -0.026699   -0.000000    0.000000  
      0.000000  0.028170  0.000000    -0.026699    0.000000    0.000000  
      4.255709  4.422481  0.000000     0.221712   -0.018471    0.000000  
      1.417887  4.422481  0.000000     0.221712    0.018471   -0.000000  
      2.836798  3.020613  1.990032     0.321830    0.000000    0.000000  
      1.418911  1.581134  0.000000     0.221712   -0.018471   -0.000000  
      4.254684  1.581134  0.000000     0.221712    0.018471    0.000000  
      0.000000  0.179265  1.990032     0.321830   -0.000000    0.000000  
 
  22 f  =    4.353530 THz    27.354037 2PiTHz  145.218134 cm-1    18.004760 meV
             X         Y         Z           dx          dy          dz
      2.836798  0.085376  1.990032     0.000000    0.000000    0.704714  
      0.000000  2.926724  1.990032    -0.000000   -0.000000   -0.704714  
      2.836798  2.869518  0.000000    -0.000000    0.000000    0.002891  
      0.000000  0.028170  0.000000     0.000000   -0.000000   -0.002891  
      4.255709  4.422481  0.000000    -0.000000    0.000000    0.040850  
      1.417887  4.422481  0.000000     0.000000   -0.000000    0.040850  
      2.836798  3.020613  1.990032    -0.000000    0.000000   -0.005643  
      1.418911  1.581134  0.000000     0.000000    0.000000   -0.040850  
      4.254684  1.581134  0.000000     0.000000    0.000000   -0.040850  
      0.000000  0.179265  1.990032     0.000000   -0.000000    0.005643  
 
  23 f  =    4.350463 THz    27.334765 2PiTHz  145.115822 cm-1    17.992075 meV
             X         Y         Z           dx          dy          dz
      2.836798  0.085376  1.990032     0.000000   -0.656064    0.000000  
      0.000000  2.926724  1.990032     0.000000    0.656064   -0.000000  
      2.836798  2.869518  0.000000     0.000000   -0.223096    0.000000  
      0.000000  0.028170  0.000000     0.000000    0.223096   -0.000000  
      4.255709  4.422481  0.000000     0.016958    0.005368    0.000000  
      1.417887  4.422481  0.000000    -0.016958    0.005368    0.000000  
      2.836798  3.020613  1.990032    -0.000000   -0.138476   -0.000000  
      1.418911  1.581134  0.000000    -0.016958   -0.005368   -0.000000  
      4.254684  1.581134  0.000000     0.016958   -0.005368   -0.000000  
      0.000000  0.179265  1.990032    -0.000000    0.138476   -0.000000  
 
  24 f  =    4.266461 THz    26.806962 2PiTHz  142.313800 cm-1    17.644669 meV
             X         Y         Z           dx          dy          dz
      2.836798  0.085376  1.990032     0.644626    0.000000   -0.000000  
      0.000000  2.926724  1.990032    -0.644626    0.000000    0.000000  
      2.836798  2.869518  0.000000    -0.223317    0.000000    0.000000  
      0.000000  0.028170  0.000000     0.223317    0.000000   -0.000000  
      4.255709  4.422481  0.000000    -0.035669    0.088205   -0.000000  
      1.417887  4.422481  0.000000    -0.035669   -0.088205   -0.000000  
      2.836798  3.020613  1.990032    -0.128384    0.000000   -0.000000  
      1.418911  1.581134  0.000000     0.035669   -0.088205    0.000000  
      4.254684  1.581134  0.000000     0.035669    0.088205    0.000000  
      0.000000  0.179265  1.990032     0.128384    0.000000   -0.000000  
 
  25 f  =    2.096127 THz    13.170353 2PiTHz   69.919259 cm-1     8.668886 meV
             X         Y         Z           dx          dy          dz
      2.836798  0.085376  1.990032     0.000000    0.000000    0.000856  
      0.000000  2.926724  1.990032    -0.000000    0.000000   -0.000856  
      2.836798  2.869518  0.000000    -0.000000    0.000000   -0.706019  
      0.000000  0.028170  0.000000     0.000000    0.000000    0.706019  
      4.255709  4.422481  0.000000     0.000000   -0.000000    0.015335  
      1.417887  4.422481  0.000000     0.000000    0.000000    0.015335  
      2.836798  3.020613  1.990032    -0.000000   -0.000000   -0.032662  
      1.418911  1.581134  0.000000    -0.000000    0.000000   -0.015335  
      4.254684  1.581134  0.000000    -0.000000   -0.000000   -0.015335  
      0.000000  0.179265  1.990032     0.000000    0.000000    0.032662  
 
  26 f  =    1.052542 THz     6.613318 2PiTHz   35.109027 cm-1     4.352966 meV
             X         Y         Z           dx          dy          dz
      2.836798  0.085376  1.990032    -0.000000    0.000000   -0.317471  
      0.000000  2.926724  1.990032    -0.000000    0.000000   -0.317471  
      2.836798  2.869518  0.000000    -0.000000    0.000000   -0.614738  
      0.000000  0.028170  0.000000    -0.000000    0.000000   -0.614738  
      4.255709  4.422481  0.000000     0.000000    0.000000   -0.080260  
      1.417887  4.422481  0.000000    -0.000000    0.000000   -0.080260  
      2.836798  3.020613  1.990032    -0.000000    0.000000   -0.091793  
      1.418911  1.581134  0.000000    -0.000000    0.000000   -0.080260  
      4.254684  1.581134  0.000000    -0.000000    0.000000   -0.080260  
      0.000000  0.179265  1.990032    -0.000000    0.000000   -0.091793  
 
  27 f/i=    0.422360 THz     2.653764 2PiTHz   14.088404 cm-1     1.746740 meV
             X         Y         Z           dx          dy          dz
      2.836798  0.085376  1.990032    -0.000000    0.320552    0.000000  
      0.000000  2.926724  1.990032    -0.000000    0.320552    0.000000  
      2.836798  2.869518  0.000000    -0.000000    0.483815    0.000000  
      0.000000  0.028170  0.000000    -0.000000    0.483815    0.000000  
      4.255709  4.422481  0.000000    -0.004304    0.231842    0.000000  
      1.417887  4.422481  0.000000     0.004304    0.231842   -0.000000  
      2.836798  3.020613  1.990032    -0.000000    0.235862   -0.000000  
      1.418911  1.581134  0.000000    -0.004304    0.231842    0.000000  
      4.254684  1.581134  0.000000     0.004304    0.231842   -0.000000  
      0.000000  0.179265  1.990032    -0.000000    0.235862   -0.000000  
 
  28 f/i=    0.557408 THz     3.502295 2PiTHz   18.593113 cm-1     2.305253 meV
             X         Y         Z           dx          dy          dz
      2.836798  0.085376  1.990032     0.320785    0.000000   -0.000000  
      0.000000  2.926724  1.990032     0.320785    0.000000   -0.000000  
      2.836798  2.869518  0.000000     0.466769    0.000000   -0.000000  
      0.000000  0.028170  0.000000     0.466769    0.000000   -0.000000  
      4.255709  4.422481  0.000000     0.244676   -0.007775   -0.000000  
      1.417887  4.422481  0.000000     0.244676    0.007775   -0.000000  
      2.836798  3.020613  1.990032     0.243659    0.000000   -0.000000  
      1.418911  1.581134  0.000000     0.244676   -0.007775   -0.000000  
      4.254684  1.581134  0.000000     0.244676    0.007775   -0.000000  
      0.000000  0.179265  1.990032     0.243659    0.000000   -0.000000  
 
  29 f/i=    1.039170 THz     6.529299 2PiTHz   34.662985 cm-1     4.297664 meV
             X         Y         Z           dx          dy          dz
      2.836798  0.085376  1.990032    -0.097836    0.000000   -0.000000  
      0.000000  2.926724  1.990032     0.097836    0.000000   -0.000000  
      2.836798  2.869518  0.000000     0.094742    0.000000   -0.000000  
      0.000000  0.028170  0.000000    -0.094742    0.000000    0.000000  
      4.255709  4.422481  0.000000    -0.351067    0.342679   -0.000000  
      1.417887  4.422481  0.000000    -0.351067   -0.342679    0.000000  
      2.836798  3.020613  1.990032     0.009907    0.000000   -0.000000  
      1.418911  1.581134  0.000000     0.351067   -0.342679   -0.000000  
      4.254684  1.581134  0.000000     0.351067    0.342679    0.000000  
      0.000000  0.179265  1.990032    -0.009907    0.000000    0.000000  
 
  30 f/i=    2.914627 THz    18.313140 2PiTHz   97.221480 cm-1    12.053932 meV
             X         Y         Z           dx          dy          dz
      2.836798  0.085376  1.990032    -0.000000   -0.000000   -0.068017  
      0.000000  2.926724  1.990032    -0.000000   -0.000000   -0.068017  
      2.836798  2.869518  0.000000    -0.000000   -0.000000    0.194955  
      0.000000  0.028170  0.000000    -0.000000   -0.000000    0.194955  
      4.255709  4.422481  0.000000    -0.000000   -0.000000   -0.399364  
      1.417887  4.422481  0.000000     0.000000   -0.000000   -0.399364  
      2.836798  3.020613  1.990032    -0.000000   -0.000000   -0.371999  
      1.418911  1.581134  0.000000    -0.000000   -0.000000   -0.399364  
      4.254684  1.581134  0.000000    -0.000000    0.000000   -0.399364  
      0.000000  0.179265  1.990032    -0.000000   -0.000000   -0.371999  
 


--------------------------------------------------------------------------------------------------------




 MACROSCOPIC STATIC DIELECTRIC TENSOR IONIC CONTRIBUTION
 ------------------------------------------------------
          52.405199     0.004234     0.000000
           0.004234    33.356897     0.005487
           0.000000     0.005487   323.615970
 ------------------------------------------------------


 ELASTIC MODULI CONTR FROM IONIC RELAXATION (kBar)
 Direction    XX          YY          ZZ          XY          YZ          ZX
 --------------------------------------------------------------------------------
 XX        -778.0050   -676.9002    182.9811     -0.0000     -0.0000     -0.0000
 YY        -676.9002   -714.2029     38.4815     -0.0000     -0.0000     -0.0000
 ZZ         182.9811     38.4815   -474.2869      0.0000      0.0000      0.0000
 XY          -0.0000     -0.0000      0.0000  -1356.8494     -0.0000     -0.0000
 YZ          -0.0000     -0.0000      0.0000     -0.0000     -0.7608     -0.0000
 ZX          -0.0000     -0.0000      0.0000     -0.0000     -0.0000     -0.2204
 --------------------------------------------------------------------------------


 PIEZOELECTRIC TENSOR IONIC CONTR  for field in x, y, z        (C/m^2)
          XX          YY          ZZ          XY          YZ          ZX
  --------------------------------------------------------------------------------
  x    -0.00035    -0.00053     0.00003    -7.84055    -0.00000    -0.00000
  y    -3.82268    -4.03744     1.52896    -0.00000    -0.00000    -0.00000
  z    -0.00071    -0.00050     0.00075    -0.00000    -0.11496    -0.00000


--------------------------------------------------------------------------------------------------------


 writing wavefunctions
     LOOP+:  cpu time 2697.5140: real time 2698.5370
    4ORBIT:  cpu time    0.0000: real time    0.0000
 


 total charge     
 
# of ion       s       p       d       tot
------------------------------------------
    1        0.070   6.058   0.122   6.250
    2        0.070   6.058   0.122   6.250
    3        0.448   6.661   2.862   9.972
    4        0.448   6.661   2.862   9.972
    5        1.558   3.444   0.000   5.002
    6        1.553   3.490   0.000   5.043
    7        1.554   3.471   0.000   5.026
    8        1.558   3.444   0.000   5.002
    9        1.553   3.490   0.000   5.043
   10        1.554   3.471   0.000   5.026
--------------------------------------------------
tot         10.367  46.248   5.969  62.584
 


 magnetization (x)
 
# of ion       s       p       d       tot
------------------------------------------
    1        0.000   0.000   0.000   0.000
    2        0.000   0.000   0.000   0.000
    3       -0.000  -0.000   0.000   0.000
    4       -0.000  -0.000   0.000   0.000
    5       -0.000  -0.000   0.000  -0.000
    6       -0.000  -0.000   0.000  -0.000
    7       -0.000  -0.000   0.000  -0.000
    8       -0.000  -0.000   0.000  -0.000
    9       -0.000  -0.000   0.000  -0.000
   10       -0.000  -0.000   0.000  -0.000
--------------------------------------------------
tot         -0.000  -0.000   0.000   0.000
 

 total amount of memory used by VASP MPI-rank0    56081. kBytes
=======================================================================

   base      :      30000. kBytes
   nonlr-proj:       3711. kBytes
   fftplans  :        830. kBytes
   grid      :       4416. kBytes
   one-center:        311. kBytes
   wavefun   :      16813. kBytes
 
  
  
 General timing and accounting informations for this job:
 ========================================================
  
                  Total CPU time used (sec):     2701.541
                            User time (sec):     2697.806
                          System time (sec):        3.736
                         Elapsed time (sec):     2703.206
  
                   Maximum memory used (kb):      360940.
                   Average memory used (kb):           0.
  
                          Minor page faults:      1269796
                          Major page faults:            0
                 Voluntary context switches:         1896
