 --invoking executable--
/opt/cfour/2.1/bin/xjoda


   *************************************************************************
         <<<     CCCCCC     CCCCCC   |||     CCCCCC     CCCCCC   >>>
       <<<      CCC        CCC       |||    CCC        CCC         >>>
      <<<      CCC        CCC        |||   CCC        CCC            >>>
    <<<        CCC        CCC        |||   CCC        CCC              >>>
      <<<      CCC        CCC        |||   CCC        CCC            >>>
       <<<      CCC        CCC       |||    CCC        CCC         >>>
         <<<     CCCCCC     CCCCCC   |||     CCCCCC     CCCCCC   >>>
   *************************************************************************

     ****************************************************************
     * CFOUR Coupled-Cluster techniques for Computational Chemistry *
     ****************************************************************


   Department of Chemistry                Institut fuer Physikalische Chemie
   University of Florida                  Universitaet Mainz
   Gainesville, FL 32611, USA             D-55099 Mainz, Germany

   Department of Chemistry                Fakultaet fuer Chemie und Biowiss.
   Johns Hopkins University               Karlsruher Institut fuer Technologie
   Baltimore, MD 21218, USA               D-76131 Karlsruhe, Germany

   Department of Chemistry                Department of Physical Chemistry
   Southern Methodist University          Eotvos Lorand University
   Dallas, TX 75275, USA                  H-1053 Budapest, Hungary


                       Version 2.1

                     node016                                           
                     Fri 22 Aug 2025 02:41:08 PM PDT                   
                     integer*8 version is running

********************************************************************************
*                          Input from ZMAT file                                *
********************************************************************************
Optimization on FeCO4 (C2v), S0                                                 
FE                                                                              
X 1 RDX                                                                         
C 1 RC1* 2 AC1*                                                                 
C 1 RC1* 2 AC1* 3 D180                                                          
C 1 RC2* 2 AC2* 4 D90                                                           
C 1 RC2* 2 AC2* 3 D90                                                           
O 1 RO1* 2 AO1* 4 D180                                                          
O 1 RO1* 2 AO1* 3 D180                                                          
O 1 RO2* 2 AO2* 6 D180                                                          
O 1 RO2* 2 AO2* 5 D180                                                          
                                                                                
RDX  =   1.25                                                                   
RC1  =   1.796531369024685                                                      
AC1  =  62.96703139425694                                                       
RC2  =   1.844669135626477                                                      
AC2  =  94.78154                                                                
RO1  =   2.954078447724298                                                      
AO1  =  60.109745                                                               
RO2  =   2.998901502428020                                                      
AO2  =  95.400635                                                               
D90  =  90.0                                                                    
D180 = 180.0                                                                    
                                                                                
*ACES2(CALC = CCSD(T)                                                           
      BASIS = SPECIAL                                                           
FROZEN_CORE = ON                                                                
   SCF_CONV = 10                                                                
    CC_CONV = 8                                                                 
 LINEQ_CONV = 8                                                                 
   SCF_MAXCYC = 500                                                             
    CC_MAXCYC = 500                                                             
 LINEQ_MAXCYC = 500                                                             
       MEMORY = 32                                                              
     MEM_UNIT = GB)                                                             
                                                                                
Fe:cc-pVDZ                                                                      
C:cc-pVDZ                                                                       
C:cc-pVDZ                                                                       
C:cc-pVDZ                                                                       
C:cc-pVDZ                                                                       
O:cc-pVDZ                                                                       
O:cc-pVDZ                                                                       
O:cc-pVDZ                                                                       
O:cc-pVDZ                                                                       
                                                                                
********************************************************************************
    -------------------------------------------------------------------
                    CFOUR Control Parameters 
    -------------------------------------------------------------------
        External           Internal           Value            Units
          Name               Name
    -------------------------------------------------------------------
       ABCDTYPE             IABCDT         STANDARD    [  0]    ***   
       ANHARMONIC           IANHAR         OFF         [  0]    ***   
       ANH_ALGORIT          IANALG         STANDARD    [  0]    ***   
       ANH_DERIVAT          IANDER         SECOND      [  1]    ***   
       ANH_MODE             ANHMOD         VIBRATION   [  0]    ***   
       ANH_STEPSIZ          ICUBST             50000          x 10-6  
       ANH_SYMMETR          IANHSM         ABELIAN     [  0]    ***   
       AO_LADDERS           IAOLAD         SINGLEPASS  [  1]    ***   
       AV_SCF               IAVSCF         OFF         [  0]    ***   
       BASIS                IBASIS         SPECIAL     [  0]    ***   
       BOTHVECTORS          BOTHVC         OFF         [  0]    ***   
       BOX_POTENT           IPIAB          OFF         [  0]    ***   
       BREIT                IBREIT         OFF         [  0]    ***   
       BRUCK_CONV           IBRTOL          10D-  4             ***   
       BRUECKNER            IBRKNR         OFF         [  0]    ***   
       BUFFERSIZE           IBUFFS              4096            ***   
       CACHE_RECS           ICHREC             10               ***   
       CALCLEVEL            ICLLVL         CCSD(T)     [ 22]    ***   
       CCORBOPT             ICCORB         OFF         [  0]  x 0.01  
       CC_CONV              ICCCNV          10D-  8             ***   
       CC_EXPORDER          ICCEOR              5               ***   
       CC_EXTRAPOL          ICCEXT         DIIS        [  1]    ***   
       CC_GUESS             ICCGES         MP2         [  0]    ***   
       CC_MAXCYC            ICCCYC            500              cycles 
       CC_PROGRAM           ICCPRO         VCC         [  0]    ***   
       CHARGE               ICHRGE              0               ***   
       CHOLESKY             ICHOLE         OFF         [  0]    ***   
       CIS_CONV             ICISTL              5               ***   
       COMM_SIZE            IPSIZE            ***               ***   
       CONSTANT             ICONST         OLD         [  1]    ***   
       CONTINUUM            ICONTU         NONE        [  0]    ***   
       CONTRACTION          ICNTYP         GENERAL     [  1]    ***   
       COORDINATES          ICOORD         INTERNAL    [  0]    ***   
       CPHF_CONVER          ICPHFT          10D- 16             ***   
       CPHF_MAXCYC          ICPHFC             64              cycles 
       CUBIC                ICUBIC         OFF         [  0]    ***   
       CURVILINEAR          ICURVY         OFF         [  0]    ***   
       DBOC                 IDBOC          OFF         [  0]    ***   
       DCT                  IDCT           OFF         [  0]    ***   
       DERIV_LEV            IDRLVL         FIRST       [  1]    ***   
       DEVMEM_SIZE          IDVMEM         *********           MByte  
       DIAG_MRCC            IEOMST          10D-  0             ***   
       DIFF_TYPE            IDIFTY         RELAXED     [  0]    ***   
       DIRECT               IDIRCT         OFF         [  0]    ***   
       DROPMO               IDRPMO      NONE         
       ECP                  IECP           OFF         [  0]    ***   
       EIGENVECTOR          IVEC                1               ***   
       EL_ANHARM            IELANH         OFF         [  0]    ***   
       EOMFOLLOW            IEOMSR         ENERGY      [  0]    ***   
       EOMIP                IEOMIP         OFF         [  0]    ***   
       EOMLEVEL             HBARFM         SAME        [  0]    ***   
       EOM_MRCC             IMRCCE         NEW         [  1]    ***   
       EOM_NONIT            EOMNON         OFF         [  0]    ***   
       EOM_NSING            IEOMSI          10D-  0             ***   
       EOM_NSTATES          IMRCCD         DAVIDSON    [  0]    ***   
       EOM_NTRIP            IEOMTR          10D-  0             ***   
       EOM_ORDER            IEXORD         ENERGY      [  0]    ***   
       EOM_PROPSTA          IEOMST              0               ***   
       ESTATE_CONV          IEXTOL          10D-  5             ***   
       ESTATE_DIAG          IEXDIG         ITERATIVE   [  0]    ***   
       ESTATE_LOCK          IESLOC         ON          [  1]    ***   
       ESTATE_MAXC          IEXMXC             40               ***   
       ESTATE_PROP          IEXPRP         OFF         [  0]    ***   
       EVAL_HESS            IRECAL              0            # of cyc.
       EXCITATION           IEXCIT              0               ***   
       EXCITE               IEXCIT         NONE        [  0]    ***   
       EXTERN_POT           IEXPOT         OFF         [  0]    ***   
       FCGRADNEW            IFCGNW         ON          [  1]    ***   
       FC_FIELD             IFINFC              0             x 10-6  
       FD_CALTYPE           IFDCAL         GRADONLY    [  0]    ***   
       FD_PROJECT           IFDPRJ         OFF         [  1]    ***   
       FD_STEPSIZE          IDISFD              0            10-4 bohr
       FD_USEGROUP          IFDGRP         FULL        [  0]    ***   
       FILE_RECSIZ          IFLREC              4096           words  
       FINITE_PERT          IFIPER              0             x 10-6  
       FIXGEOM              IFIXGM         OFF         [  0]    ***   
       FOCK                 IFOCK          AO          [  1]    ***   
       FREQ_ALGORI          IVIALG         STANDARD    [  0]    ***   
       FROZEN_CORE          IFROCO         ON          [  1]    ***   
       GAMMA_ABCD           IGABCD         STORE       [  0]    ***   
       GAMMA_ABCI           IGABCI         STORE       [  0]    ***   
       GENBAS_1             IGNBS1              0               ***   
       GENBAS_2             IGNBS2              0               ***   
       GENBAS_3             IGNBS3              0               ***   
       GENBAS_4             IGNBS4              0               ***   
       GEO_CONV             ICONTL              5              H/bohr 
       GEO_MAXCYC           IOPTCY             50               ***   
       GEO_MAXSTEP          IMXSTP            300            millibohr
       GEO_METHOD           INR            NR          [  0]    ***   
       GIAO                 IGIAO          OFF         [  1]    ***   
       GIMIC                IGIMIC         OFF         [  0]    ***   
       GRID                 IGRID          OFF         [  0]    ***   
       GRID_ALGO            IGALGO         SERIAL      [  0]    ***   
       GUESS                IGUESS         MOREAD      [  0]    ***   
       HBAR                 IHBAR          OFF         [  0]    ***   
       HESS_TYPE            IHESTP         SCF         [  0]    ***   
       HF2_FILE             IHF2Fl         USE         [  1]    ***   
       HFSTABILITY          ISTABL         OFF         [  0]    ***   
       INCORE               INCORE         OFF         [  0]    ***   
       INPUT_MRCC           IMRCC          ON          [  1]    ***   
       INTEGRALS            INTTYP         VMOL        [  1]    ***   
       JODA_PRINT           IJPRNT              0               ***   
       KEYWORD_OUT          IDMPKW         NO          [  0]    ***   
       LINDEP_TOL           ILINDP              8               ***   
       LINEQ_CONV           IZTACN          10D-  8           cycles  
       LINEQ_EXPOR          ILMAXD              5               ***   
       LINEQ_MAXCY          ILMAXC            500               ***   
       LINEQ_TYPE           ILTYPE         DIIS        [  1]    ***   
       LOCK_ORBOCC          ILOCOC         OFF         [  0]    ***   
       MEMORY_SIZE          IMEMSZ         *********           words  
       MEM_UNIT             IMEMU          GB          [  3]    ***   
       MRCC                 IMRCCC         OFF         [  0]    ***   
       MULTIPLICTY          IMULTP              1               ***   
       NACOUPLING           IVCOUP         OFF         [  0]    ***   
       NEGEVAL              IDIE           ABORT       [  0]    ***   
       NEWNORM              INEWNO         OFF         [  0]    ***   
       NON-HF               INONHF         OFF         [  0]    ***   
       NTOP_TAMP            ITOPT2             15               ***   
       NUC_MODEL            INUCMO         POINT       [  0]    ***   
       OCCUPATION           IOCCU   ESTIMATED BY SCF 
       OPEN-SHELL           IOPEN          SPIN-ORBITAL[  0]    ***   
       OPTVIB               IOPTVB         OFF         [  0]    ***   
       ORBITALS             IORBTP         STANDARD    [  0]    ***   
       PARALLEL             IPARAL         ON          [  1]    ***   
       PARA_INT             IPINTS         ON          [  1]    ***   
       PARA_PRINT           IPPRIN              0               ***   
       PERT_ORB             IPTORB         CANONICAL   [  1]    ***   
       POINTS               IGRDFD              0               ***   
       PRINT                IPRNT               0               ***   
       PROPS                IPROPS         OFF         [  0]    ***   
       PROP_INTEGR          IINTYP         INTERNAL    [  0]    ***   
       PSI                  IPSI           OFF         [  0]    ***   
       QC_ALG               IQCALG         FLM         [  0]    ***   
       QC_LINALG            IQCLIN         TRIDIAG     [  2]    ***   
       QC_MAXCYC            IQCMAX          10D-100           cycles  
       QC_MAXSCFCY          IQCMSC          10D- 15           cycles  
       QC_RTRUST            IQCRTR          10D-  0           x 10-3  
       QC_SKIPSCF           IQCSKI         OFF         [  0]    ***   
       QC_START             IQCSTA          10D-  1             ***   
       QRHFGUESS            IQGUES         OFF         [  0]    ***   
       QUARTIC              IQUART         OFF         [  0]    ***   
       RAMAN_INT            IRAMIN         OFF         [  0]    ***   
       RAMAN_ORB            IRAMRE         UNRELAXED   [  0]    ***   
       RDO                  IRDOFM         ON          [  1]    ***   
       REDUCE_REPR          REDREP         Ir          [  0]    ***   
       REFERENCE            IREFNC         RHF         [  0]    ***   
       RELATIVIST           IRELAT         OFF         [  0]    ***   
       RELAX_DENS           IRDENS         ON          [  1]    ***   
       RESET_FLAGS          IRESET         OFF         [  0]    ***   
       RESTART_CC           ICCRES         OFF         [  0]    ***   
       ROT_EVEC             ROTVEC              0               ***   
       SAVE_INTS            ISVINT         OFF         [  0]    ***   
       SCALE_ON             ISTCRT              0               ***   
       SCF_CONV             ISCFCV          10D- 10             ***   
       SCF_DAMPING          IDAMP               0             x 10-3  
       SCF_EXPORDE          IRPPOR              6               ***   
       SCF_EXPSTAR          IRPPLS              8               ***   
       SCF_EXTRAPO          IRPP           ON          [  1]    ***   
       SCF_MAXCYC           ISCFCY            500              cycles 
       SCF_NOSTOP           ISCFST         OFF         [  0]    ***   
       SCF_PRINT            ISCFPR              0               ***   
       SCF_PROG             ISCFPR         SCF         [  0]    ***   
       SD_FIELD             IFINSD              0             x 10-6  
       SOPERT               IPERSO         OFF         [  0]    ***   
       SPHERICAL            IDFGHI         ON          [  1]    ***   
       SPINORBIT            ISOCAL         OFF         [  0]    ***   
       SPINROTATIO          ISRCON         OFF         [  0]    ***   
       SPIN_FLIP            ISPFLP         OFF         [  0]    ***   
       SPIN_ORBIT           ISPORB         OFF         [  0]    ***   
       SPIN_SCAL            ISCSMP         OFF         [  0]    ***   
       STEEPSCALE           ISTPSC              1000          x 10-3  
       SUBGROUP             ISUBGP         DEFAULT     [  0]    ***   
       SUBGRPAXIS           ISBXYZ         X           [  0]    ***   
       SYMMETRY             ISYM           ON          [  0]    ***   
       SYM_CHECK            ISYMCK         OVERRIDE    [  1]    ***   
       T3_EXTRAPOL          IT3EXT         OFF         [  0]    ***   
       T4_EXTRAPOL          IT4EXP         OFF         [  0]    ***   
       TAMP_SUM             IEVERY              5               ***   
       TESTSUITE            ITESTS         OFF         [  0]    ***   
       THERMOCH             ITHERM         OFF         [  0]    ***   
       TOL_CHOLESK          ITOLCH          10D-  4             ***   
       TRANGRAD             IRESRM         OFF         [  0]    ***   
       TRANS_INV            ITRAIN         USE         [  0]    ***   
       TREAT_PERT           ITREAT         SIMULTANEOUS[  0]    ***   
       TRIP_ALGORI          ITRALG         NORMAL      [  0]    ***   
       UIJ_THRESHO          IUIJTH              1               ***   
       UNITS                IUNITS         ANGSTROM    [  0]    ***   
       UNOS                 IUNOS          OFF         [  0]    ***   
       UPDATE_HESS          IHUPDT         ON          [  1]    ***   
       VIBPHASE             ISETPH         STANDARD    [  0]    ***   
       VIBRATION            IVIB           NO          [  0]    ***   
       VIB_ALGORIT          IGEALG         STANDARD    [  0]    ***   
       VNATORB              IVNORB         OFF         [  0]    ***   
       VTRAN                IVTRAN         FULL/PARTIAL[  0]    ***   
       XFIELD               IXEFLD              0             x 10-6  
       XFORM_TOL            IXFTOL          10D- 11             ***   
       YFIELD               IYEFLD              0             x 10-6  
       ZFIELD               IZEFLD              0             x 10-6  
       ZSCALE_EXP           IZEXPS         OFF         [  0]    ***   
    -------------------------------------------------------------------
  10 entries found in Z-matrix 
   Job Title : Optimization on FeCO4 (C2v), S0                                                 
   There are 11 unique internal coordinates.
   Of these,  8 will be optimized.
   User supplied Z-matrix: 
--------------------------------------------------------------------------------
       SYMBOL    BOND      LENGTH    ANGLE     ANGLE     DIHED     ANGLE
                  TO      (ANGST)    WRT      (DEG)      WRT      (DEG)
--------------------------------------------------------------------------------
        FE   
        X          1         RDX  
        C          1         RC1        2        AC1  
        C          1         RC1        2        AC1        3        D180 
        C          1         RC2        2        AC2        4        D90  
        C          1         RC2        2        AC2        3        D90  
        O          1         RO1        2        AO1        4        D180 
        O          1         RO1        2        AO1        3        D180 
        O          1         RO2        2        AO2        6        D180 
        O          1         RO2        2        AO2        5        D180 
                  *Initial values for internal coordinates* 
                      Name             Value
                        RDX             1.2500000000
                        RC1             1.7965313690
                        AC1            62.9670313943
                        D180          180.0000000000
                        RC2             1.8446691356
                        AC2            94.7815400000
                        D90            90.0000000000
                        RO1             2.9540784477
                        AO1            60.1097450000
                        RO2             2.9989015024
                        AO2            95.4006350000
--------------------------------------------------------------------------------
  filter applied 
  filter applied 
   Rotational constants (in cm-1): 
          0.0264415942             0.0385451946             0.0492349682
   Rotational constants (in MHz): 
        792.6991642411          1155.5560238971          1476.0274191108
********************************************************************************
   The full molecular point group is C2v .
   The largest Abelian subgroup of the full molecular point group is C2v .
   The computational point group is C2v .
********************************************************************************
--------------------------------------------------------------------------------
   Analysis of internal coordinates specified by Z-matrix 
--------------------------------------------------------------------------------
   *The nuclear repulsion energy is  580.683686013206852 a.u.
   *There are   8 degrees of freedom within the tot. symm. molecular subspace.
   *Z-matrix requests optimization of   8 coordinates.
   *The optimization is unconstrained and your Z-matrix is great.
--------------------------------------------------------------------------------


 ----------------------------------------------------------------
         Coordinates used in calculation (QCOMP) 
 ----------------------------------------------------------------
 Z-matrix   Atomic            Coordinates (in bohr)
  Symbol    Number           X              Y              Z
 ----------------------------------------------------------------
     FE       26         0.00000000     0.00000000    -0.60738828
     X         0         0.00000000     0.00000000     1.75476987
     C         6        -0.00000000    -3.02403788     0.93562843
     C         6         0.00000000     3.02403788     0.93562843
     C         6         3.47378837    -0.00000000    -0.89796337
     C         6        -3.47378837     0.00000000    -0.89796337
     O         8        -0.00000000    -4.83983797     2.17454674
     O         8         0.00000000     4.83983797     2.17454674
     O         8         5.64194698    -0.00000000    -1.14077238
     O         8        -5.64194698     0.00000000    -1.14077238
 ----------------------------------------------------------------

   Interatomic distance matrix (Angstroms) 

                 FE            X             C             C             C    
                [ 1]        [ 2]        [ 3]        [ 4]        [ 5]
  FE   [ 1]     0.00000
  X    [ 2]     1.25000     0.00000
  C    [ 3]     1.79653     1.65792     0.00000
  C    [ 4]     1.79653     1.65792     3.20050     0.00000
  C    [ 5]     1.84467     2.31295     2.62325     2.62325     0.00000
  C    [ 6]     1.84467     2.31295     2.62325     2.62325     3.67650
  O    [ 7]     2.95408     2.57075     1.16323     4.21271     3.54713
  O    [ 8]     2.95408     2.57075     4.21271     1.16323     3.54713
  O    [ 9]     2.99890     3.35582     3.56116     3.56116     1.15451
  O    [10]     2.99890     3.35582     3.56116     3.56116     4.82555

                 C             O             O             O             O    
                [ 6]        [ 7]        [ 8]        [ 9]        [10]
  C    [ 6]     0.00000
  O    [ 7]     3.54713     0.00000
  O    [ 8]     3.54713     5.12226     0.00000
  O    [ 9]     4.82555     4.30709     4.30709     0.00000
  O    [10]     1.15451     4.30709     4.30709     5.97118     0.00000
 rotcon2
   Rotational constants (in cm-1): 
          0.0492349682             0.0385451946             0.0264415942
   Rotational constants (in MHz): 
       1476.0274191108          1155.5560238971           792.6991642411
  ECPDATA file not present.   Using default ECPDATA. 
  There are  17 frozen-core orbitals.
  There are  155 basis functions.
 @CHECKOUT-I, Total execution time (CPU/WALL):        1.35/       1.20 seconds.
--executable xjoda finished with status     0 in        1.25 seconds (walltime).
 --invoking executable--
/opt/cfour/2.1/bin/xvmol
 SERIAL VERSION OF MOLECULE STARTED
********************************************************************************
                    INPUT FROM MOL FILE
********************************************************************************
INTGRL        1    0    1    0    0    0    0    0    0                         
         *** CFOUR Program System (Release V0.1) ***                            
Optimization on FeCO4 (C2v), S0                                                 
    5    2 X  Y       0.10E-08              0    0                              
   9999.00      3.00                                                            
         26.00000000    1    4    1    1    1    1                              
FE#1   0.000000000000000   0.000000000000000  -0.607388282385794                
   20    6                                                                      
   4316265.0000000000        8.0488029999999998E-006  -4.1559539999999997E-006  
   646342.40000000002        6.2583059999999998E-005  -3.2314010000000003E-005  
   147089.70000000001        3.2902389999999999E-004  -1.6995250000000000E-004  
   41661.519999999997        1.3873550000000001E-003  -7.1713690000000004E-004  
   13590.770000000000        5.0232560000000002E-003  -2.6036250000000000E-003  
   4905.7500000000000        1.6101399999999998E-002  -8.3991090000000001E-003  
   1912.7460000000001        4.5900339999999998E-002  -2.4341089999999999E-002  
   792.60429999999997       0.11361540000000001       -6.2519480000000002E-002  
   344.80650000000003       0.22838690000000000      -0.13659289999999999       
   155.89990000000000       0.32211590000000001      -0.23127070000000000       
   72.230909999999994       0.23836610000000000      -0.23837340000000001       
   32.725059999999999        7.4046669999999995E-002   3.1238370000000001E-002  
   15.667619999999999        9.2141970000000004E-002  0.50868179999999996      -
   7.5034830000000001        9.3397900000000006E-002  0.49876949999999998      -
   3.3122229999999999        1.5739650000000001E-002   9.0335520000000002E-002  
   1.5584709999999999       -4.1866819999999998E-004  -6.0053370000000003E-003  
  0.68391400000000002        5.3763179999999999E-005   2.3124539999999999E-004  
  0.14675700000000000       -3.8166539999999997E-005  -5.6436799999999999E-004  
   7.0583000000000007E-002   4.3196030000000000E-005   4.9922599999999997E-004  
   3.1448999999999998E-002  -3.4010190000000000E-006  -1.0152930000000000E-004  
   16    5                                                                      
   17745.689999999999        4.1000000000000000E-005  -1.5000000000000000E-005  
   4200.7209999999995        3.6900000000000002E-004  -1.2999999999999999E-004  
   1364.4290000000001        2.1289999999999998E-003  -7.5100000000000004E-004  
   522.08060000000000        9.3690000000000006E-003  -3.3289999999999999E-003  
   221.45949999999999        3.3097000000000001E-002  -1.1912000000000001E-002  
   100.90960000000000        9.4431000000000001E-002  -3.4932999999999999E-002  
   48.401150000000001       0.20807700000000001       -7.9989000000000005E-002  
   23.985360000000000       0.33233299999999999      -0.13463600000000001       
   12.182499999999999       0.33298699999999998      -0.13859800000000000       
   6.2422979999999999       0.15684300000000001        3.0277999999999999E-002  
   3.1109439999999999        2.1548999999999999E-002  0.33321600000000001      -
   1.5099579999999999       -2.0950000000000001E-003  0.45615299999999998      -
  0.71084499999999995       -1.7390000000000001E-003  0.28505100000000000      -
  0.27318999999999999       -2.9999999999999997E-004   4.6143999999999998E-002  
  0.10423300000000001        2.9000000000000000E-005  -3.2490000000000002E-003  
   3.8290999999999999E-002  -1.1000000000000000E-005   1.3569999999999999E-003  
    8    3                                                                      
   113.34399999999999        3.5300000000000002E-003  -3.8899999999999998E-003  
   33.641399999999997        2.5784000000000001E-002  -2.8441999999999999E-002  
   12.331000000000000        9.9118999999999999E-002 -0.11242900000000000       
   4.9947800000000004       0.23907300000000001      -0.27425699999999997       
   2.0728000000000000       0.35719899999999999      -0.31554599999999999       
  0.83075299999999996       0.36218800000000001        5.7109000000000000E-002  
  0.30917800000000001       0.23646100000000000       0.56360399999999999       
  0.10013000000000000        6.0117999999999998E-002  0.38463700000000001       
    2    1                                                                      
   3.2242999999999999       0.42224899999999999                                 
  0.77580000000000005       0.77146800000000004                                 
          6.00000000    1    3    1    1    1                                   
C #2  -0.000000000000001  -3.024037880800049   0.935628433698337                
    9    3                                                                      
   6665.0000000000000        6.9200000000000002E-004  -1.4600000000000000E-004  
   1000.0000000000000        5.3290000000000004E-003  -1.1540000000000001E-003  
   228.00000000000000        2.7077000000000000E-002  -5.7250000000000001E-003  
   64.709999999999994       0.10171800000000000       -2.3311999999999999E-002  
   21.059999999999999       0.27473999999999998       -6.3954999999999998E-002  
   7.4950000000000001       0.44856400000000002      -0.14998100000000000       
   2.7970000000000002       0.28507399999999999      -0.12726199999999999       
  0.52149999999999996        1.5204000000000001E-002  0.54452900000000004       
  0.15959999999999999       -3.1909999999999998E-003  0.58049600000000001       
    4    2                                                                      
   9.4390000000000001        3.8108999999999997E-002   0.0000000000000000       
   2.0019999999999998       0.20948000000000000        0.0000000000000000       
  0.54559999999999997       0.50855700000000004        0.0000000000000000       
  0.15170000000000000       0.46884199999999998        1.0000000000000000       
    1    1                                                                      
  0.55000000000000004        1.0000000000000000                                 
          6.00000000    1    3    1    1    1                                   
C #3   3.473788374746610  -0.000000000000001  -0.897963368636794                
    9    3                                                                      
   6665.0000000000000        6.9200000000000002E-004  -1.4600000000000000E-004  
   1000.0000000000000        5.3290000000000004E-003  -1.1540000000000001E-003  
   228.00000000000000        2.7077000000000000E-002  -5.7250000000000001E-003  
   64.709999999999994       0.10171800000000000       -2.3311999999999999E-002  
   21.059999999999999       0.27473999999999998       -6.3954999999999998E-002  
   7.4950000000000001       0.44856400000000002      -0.14998100000000000       
   2.7970000000000002       0.28507399999999999      -0.12726199999999999       
  0.52149999999999996        1.5204000000000001E-002  0.54452900000000004       
  0.15959999999999999       -3.1909999999999998E-003  0.58049600000000001       
    4    2                                                                      
   9.4390000000000001        3.8108999999999997E-002   0.0000000000000000       
   2.0019999999999998       0.20948000000000000        0.0000000000000000       
  0.54559999999999997       0.50855700000000004        0.0000000000000000       
  0.15170000000000000       0.46884199999999998        1.0000000000000000       
    1    1                                                                      
  0.55000000000000004        1.0000000000000000                                 
          8.00000000    1    3    1    1    1                                   
O #4  -0.000000000000001  -4.839837974578403   2.174546738124927                
    9    3                                                                      
   11720.000000000000        7.1000000000000002E-004  -1.6000000000000001E-004  

Running with 32 threads/proc

   1759.0000000000000        5.4700000000000000E-003  -1.2630000000000000E-003  
   400.80000000000001        2.7837000000000001E-002  -6.2670000000000000E-003  
   113.70000000000000       0.10480000000000000       -2.5715999999999999E-002  
   37.030000000000001       0.28306199999999998       -7.0924000000000001E-002  
   13.270000000000000       0.44871899999999998      -0.16541100000000000       
   5.0250000000000004       0.27095200000000003      -0.11695500000000000       
   1.0129999999999999        1.5458000000000000E-002  0.55736799999999997       
  0.30230000000000001       -2.5850000000000001E-003  0.57275900000000002       
    4    2                                                                      
   17.699999999999999        4.3018000000000001E-002   0.0000000000000000       
   3.8540000000000001       0.22891300000000001        0.0000000000000000       
   1.0460000000000000       0.50872799999999996        0.0000000000000000       
  0.27529999999999999       0.46053100000000002        1.0000000000000000       
    1    1                                                                      
   1.1850000000000001        1.0000000000000000                                 
          8.00000000    1    3    1    1    1                                   
O #5   5.641946984116242  -0.000000000000001  -1.140772382015606                
    9    3                                                                      
   11720.000000000000        7.1000000000000002E-004  -1.6000000000000001E-004  
   1759.0000000000000        5.4700000000000000E-003  -1.2630000000000000E-003  
   400.80000000000001        2.7837000000000001E-002  -6.2670000000000000E-003  
   113.70000000000000       0.10480000000000000       -2.5715999999999999E-002  
   37.030000000000001       0.28306199999999998       -7.0924000000000001E-002  
   13.270000000000000       0.44871899999999998      -0.16541100000000000       
   5.0250000000000004       0.27095200000000003      -0.11695500000000000       
   1.0129999999999999        1.5458000000000000E-002  0.55736799999999997       
  0.30230000000000001       -2.5850000000000001E-003  0.57275900000000002       
    4    2                                                                      
   17.699999999999999        4.3018000000000001E-002   0.0000000000000000       
   3.8540000000000001       0.22891300000000001        0.0000000000000000       
   1.0460000000000000       0.50872799999999996        0.0000000000000000       
  0.27529999999999999       0.46053100000000002        1.0000000000000000       
    1    1                                                                      
   1.1850000000000001        1.0000000000000000                                 
FINISH                                                                          

********************************************************************************
 ONE- AND TWO-ELECTRON INTEGRALS OVER SYMMETRY-ADAPTED AOS ARE CALCULATED.

  SPHERICAL HARMONICS ARE USED.
  
  INTEGRALS LESS THAN  0.10E-13 ARE NEGLECTED.

  NUCLEAR REPULSION ENERGY :  580.6836860132 A.U.
  @MOLECU-I, ONE ELECTRON INTEGRALS (CPU/WALL):        1.06/       0.10 SECONDS.
  @TWOEL-I,    2091586 INTEGRALS OF SYMMETRY TYPE  I I I I
  @TWOEL-I,    7180751 INTEGRALS OF SYMMETRY TYPE  I J I J
  @TWOEL-I,    3768299 INTEGRALS OF SYMMETRY TYPE  I I J J
  @TWOEL-I,    4984802 INTEGRALS OF SYMMETRY TYPE  I J K L
  @TWOEL-I, TOTAL NUMBER OF 2-E INTEGRALS   18025438.
  @MOLECU-I, TWO ELECTRON INTEGRALS (CPU/WALL):       38.86/      10.91 SECONDS.
 @CHECKOUT-I, Total execution time (CPU/WALL):       39.97/      11.02 seconds.
--executable xvmol finished with status     0 in       11.06 seconds (walltime).
 --invoking executable--
/opt/cfour/2.1/bin/xvmol2ja
 @GETMEM-I,  Allocated   30517 MB of main memory.
 @CHECKOUT-I, Total execution time (CPU/WALL):        0.31/       0.02 seconds.
--executable xvmol2ja finished with status     0 in        0.05 seconds (walltime).
 --invoking executable--
/opt/cfour/2.1/bin/xvscf
  There are  155 functions in the AO basis.

  There are 4 irreducible representations.

       Irrep        # of functions
         1                 59
         2                 38
         3                 38
         4                 20


  Parameters for SCF calculation: 
        SCF reference function:  RHF  
  Maximum number of iterations:  500
     Full symmetry point group: C2v 
     Computational point group: C2v 
        Initial density matrix: MOREAD                 
     SCF convergence tolerance: 10**(-10)
  DIIS convergence acceleration:  ON
          Latest start for DIIS:   8
                     DIIS order:   6

  Memory information:     979721 words required.
  Fock matrices are constructed from AO integral file.
 @GETMEM-I,  Allocated       7 MB of main memory.
  Initialization and symmetry analysis required      0.005 seconds.

  @INITGES-I, Occupancies from core Hamiltonian:

          Alpha population by irrep:  19    9   10    3
           Beta population by irrep:  19    9   10    3


 total no. of electrons in initial guess :   0.0000000000000000     
  --------------------------------------------------------------------
  Iteration         Total Energy            Largest Density Difference
  --------------------------------------------------------------------
       0           580.683686013206739              0.0000000000D+00
   current occupation vector 
    19  9 10  3
    19  9 10  3
       1         -1329.916044107630114              0.9237493070D+03
   current occupation vector 
    19  9 10  3
    19  9 10  3
       2         -1505.545487430759749              0.9062141599D+03
   current occupation vector 
    17 10 10  4
    17 10 10  4
       3         -1338.519959700342042              0.6243010219D+03
   current occupation vector 
    19  9 10  3
    19  9 10  3
       4         -1505.396369621629674              0.6243709740D+03
   current occupation vector 
    17 10 10  4
    17 10 10  4
       5         -1338.521746827504558              0.6241592332D+03
   current occupation vector 
    19  9 10  3
    19  9 10  3
       6         -1505.396360674290008              0.6241611658D+03
   current occupation vector 
    17 10 10  4
    17 10 10  4
       7         -1338.521735202135915              0.6241595061D+03
   current occupation vector 
    19  9 10  3
    19  9 10  3
       8         -1505.396361995398820              0.6241595343D+03
   current occupation vector 
    17 10 10  4
    17 10 10  4
       9         -1688.533078682838095              0.9967844865D+01
   current occupation vector 
    18 10 10  3
    18 10 10  3
      10         -1663.420603966598719              0.4999098711D+02
   current occupation vector 
    19  9 10  3
    19  9 10  3
      11         -1698.305983974063111              0.3331828722D+02
   current occupation vector 
    19 10 10  2
    19 10 10  2
      12         -1703.261190347993306              0.1568270764D+02
   current occupation vector 
    19 10 10  2
    19 10 10  2
      13         -1708.634115293015384              0.3352618389D+01
   current occupation vector 
    18 10 10  3
    18 10 10  3
      14         -1706.505107707867410              0.2750712865D+01
   current occupation vector 
    18 10 10  3
    18 10 10  3
      15         -1712.833371507349966              0.4999227630D+01
   current occupation vector 
    18 10 10  3
    18 10 10  3
      16         -1712.805830228246123              0.2545244980D+01
   current occupation vector 
    18 10 10  3
    18 10 10  3
      17         -1713.184392795857093              0.1346738752D+01
   current occupation vector 
    18 10 10  3
    18 10 10  3
      18         -1713.197431175711699              0.9626089979D-01
   current occupation vector 
    18 10 10  3
    18 10 10  3
      19         -1713.201541307806565              0.4863820770D-01
   current occupation vector 
    18 10 10  3
    18 10 10  3
      20         -1713.202994866695917              0.5740808086D-01
   current occupation vector 
    18 10 10  3
    18 10 10  3
      21         -1713.203860718118449              0.6536703818D-01
   current occupation vector 
    18 10 10  3
    18 10 10  3
      22         -1713.204381608838048              0.3342360753D-01
   current occupation vector 
    18 10 10  3
    18 10 10  3
      23         -1713.205016617353067              0.5242983077D-01
   current occupation vector 
    18 10 10  3
    18 10 10  3
      24         -1713.205242420383456              0.4109222628D-01
   current occupation vector 
    18 10 10  3
    18 10 10  3
      25         -1713.205343945904133              0.1111322701D-01
   current occupation vector 
    18 10 10  3
    18 10 10  3
      26         -1713.205391661424073              0.7998272329D-02
   current occupation vector 
    18 10 10  3
    18 10 10  3
      27         -1713.205413472226155              0.1753288605D-01
   current occupation vector 
    18 10 10  3
    18 10 10  3
      28         -1713.205416155974490              0.8665488228D-02
   current occupation vector 
    18 10 10  3
    18 10 10  3
      29         -1713.205417307307926              0.6698481628D-02
   current occupation vector 
    18 10 10  3
    18 10 10  3
      30         -1713.205418093509707              0.6557818286D-02
   current occupation vector 
    18 10 10  3
    18 10 10  3
      31         -1713.205418528079917              0.4940806817D-02
   current occupation vector 
    18 10 10  3
    18 10 10  3
      32         -1713.205418988822203              0.6068522855D-02
   current occupation vector 
    18 10 10  3
    18 10 10  3
      33         -1713.205419274492215              0.5664731469D-02
   current occupation vector 
    18 10 10  3
    18 10 10  3
      34         -1713.205419416006862              0.2850916635D-02
   current occupation vector 
    18 10 10  3
    18 10 10  3
      35         -1713.205419503822668              0.1866728210D-02
   current occupation vector 
    18 10 10  3
    18 10 10  3
      36         -1713.205419574167991              0.2882078213D-03
   current occupation vector 
    18 10 10  3
    18 10 10  3
      37         -1713.205419622600402              0.1023361187D-02
   current occupation vector 
    18 10 10  3
    18 10 10  3
      38         -1713.205419642391917              0.2117441370D-03
   current occupation vector 
    18 10 10  3
    18 10 10  3
      39         -1713.205419649791565              0.1631141194D-03
   current occupation vector 
    18 10 10  3
    18 10 10  3
      40         -1713.205419651383636              0.6137703074D-04
   current occupation vector 
    18 10 10  3
    18 10 10  3
      41         -1713.205419653101217              0.2094033576D-03
   current occupation vector 
    18 10 10  3
    18 10 10  3
      42         -1713.205419654424531              0.2613926251D-03
   current occupation vector 
    18 10 10  3
    18 10 10  3
      43         -1713.205419655316746              0.2663035855D-03
   current occupation vector 
    18 10 10  3
    18 10 10  3
      44         -1713.205419655934293              0.1830141468D-03
   current occupation vector 
    18 10 10  3
    18 10 10  3
      45         -1713.205419656360391              0.2173798158D-03
   current occupation vector 
    18 10 10  3
    18 10 10  3
      46         -1713.205419656699632              0.1553631288D-03
   current occupation vector 
    18 10 10  3
    18 10 10  3
      47         -1713.205419657001585              0.1155560411D-03
   current occupation vector 
    18 10 10  3
    18 10 10  3
      48         -1713.205419657194852              0.3138047410D-04
   current occupation vector 
    18 10 10  3
    18 10 10  3
      49         -1713.205419657315360              0.1888158758D-04
   current occupation vector 
    18 10 10  3
    18 10 10  3
      50         -1713.205419657367656              0.1554667336D-04
   current occupation vector 
    18 10 10  3
    18 10 10  3
      51         -1713.205419657388120              0.9555405639D-05
   current occupation vector 
    18 10 10  3
    18 10 10  3
      52         -1713.205419657418133              0.1419671600D-04
   current occupation vector 
    18 10 10  3
    18 10 10  3
      53         -1713.205419657421771              0.1396947001D-04
   current occupation vector 
    18 10 10  3
    18 10 10  3
      54         -1713.205419657438597              0.1706840022D-04
   current occupation vector 
    18 10 10  3
    18 10 10  3
      55         -1713.205419657433140              0.2369457122D-04
   current occupation vector 
    18 10 10  3
    18 10 10  3
      56         -1713.205419657444054              0.1327268019D-04
   current occupation vector 
    18 10 10  3
    18 10 10  3
      57         -1713.205419657434049              0.8592502503D-05
   current occupation vector 
    18 10 10  3
    18 10 10  3
      58         -1713.205419657448147              0.1109490947D-04
   current occupation vector 
    18 10 10  3
    18 10 10  3
      59         -1713.205419657440416              0.6982209797D-05
   current occupation vector 
    18 10 10  3
    18 10 10  3
      60         -1713.205419657468610              0.2879371547D-05
   current occupation vector 
    18 10 10  3
    18 10 10  3
      61         -1713.205419657461789              0.2205864063D-05
   current occupation vector 
    18 10 10  3
    18 10 10  3
      62         -1713.205419657455877              0.1353914949D-05
   current occupation vector 
    18 10 10  3
    18 10 10  3
      63         -1713.205419657446328              0.2351119903D-05
   current occupation vector 
    18 10 10  3
    18 10 10  3
      64         -1713.205419657445418              0.3461710671D-06
   current occupation vector 
    18 10 10  3
    18 10 10  3
      65         -1713.205419657456787              0.2509447778D-05
   current occupation vector 
    18 10 10  3
    18 10 10  3
      66         -1713.205419657450875              0.1411686084D-05
   current occupation vector 
    18 10 10  3
    18 10 10  3
      67         -1713.205419657447692              0.1776166789D-05
   current occupation vector 
    18 10 10  3
    18 10 10  3
      68         -1713.205419657454513              0.2097259441D-05
   current occupation vector 
    18 10 10  3
    18 10 10  3
      69         -1713.205419657437687              0.1625214572D-05
   current occupation vector 
    18 10 10  3
    18 10 10  3
      70         -1713.205419657447237              0.1717171902D-05
   current occupation vector 
    18 10 10  3
    18 10 10  3
      71         -1713.205419657455423              0.1585010656D-06
   current occupation vector 
    18 10 10  3
    18 10 10  3
      72         -1713.205419657441780              0.7542648675D-06
   current occupation vector 
    18 10 10  3
    18 10 10  3
      73         -1713.205419657443599              0.3465385094D-06
   current occupation vector 
    18 10 10  3
    18 10 10  3
      74         -1713.205419657451785              0.2257931735D-06
   current occupation vector 
    18 10 10  3
    18 10 10  3
      75         -1713.205419657462699              0.2691326277D-06
   current occupation vector 
    18 10 10  3
    18 10 10  3
      76         -1713.205419657449056              0.2740664491D-06
   current occupation vector 
    18 10 10  3
    18 10 10  3
      77         -1713.205419657446328              0.1748320613D-06
   current occupation vector 
    18 10 10  3
    18 10 10  3
      78         -1713.205419657467701              0.8171454269D-07
   current occupation vector 
    18 10 10  3
    18 10 10  3
      79         -1713.205419657466337              0.2510775587D-07
   current occupation vector 
    18 10 10  3
    18 10 10  3
      80         -1713.205419657450420              0.1481819840D-06
   current occupation vector 
    18 10 10  3
    18 10 10  3
      81         -1713.205419657434049              0.9517685928D-07
   current occupation vector 
    18 10 10  3
    18 10 10  3
      82         -1713.205419657447692              0.6372718220D-07
   current occupation vector 
    18 10 10  3
    18 10 10  3
      83         -1713.205419657459061              0.4433494194D-07
   current occupation vector 
    18 10 10  3
    18 10 10  3
      84         -1713.205419657463153              0.2828855861D-07
   current occupation vector 
    18 10 10  3
    18 10 10  3
      85         -1713.205419657443599              0.4515458496D-07
   current occupation vector 
    18 10 10  3
    18 10 10  3
      86         -1713.205419657448601              0.2013506073D-07
   current occupation vector 
    18 10 10  3
    18 10 10  3
      87         -1713.205419657449056              0.4672115628D-07
   current occupation vector 
    18 10 10  3
    18 10 10  3
      88         -1713.205419657446782              0.1352672863D-07
   current occupation vector 
    18 10 10  3
    18 10 10  3
      89         -1713.205419657461334              0.4757684025D-08
   current occupation vector 
    18 10 10  3
    18 10 10  3
      90         -1713.205419657442235              0.8235363502D-08
   current occupation vector 
    18 10 10  3
    18 10 10  3
      91         -1713.205419657461789              0.3463826115D-08
   current occupation vector 
    18 10 10  3
    18 10 10  3
      92         -1713.205419657456787              0.1556645657D-07
   current occupation vector 
    18 10 10  3
    18 10 10  3
      93         -1713.205419657455877              0.6136940289D-08
   current occupation vector 
    18 10 10  3
    18 10 10  3
      94         -1713.205419657462699              0.3735469711D-09
   current occupation vector 
    18 10 10  3
    18 10 10  3
      95         -1713.205419657445418              0.4508262652D-09
   current occupation vector 
    18 10 10  3
    18 10 10  3
      96         -1713.205419657452239              0.1524556481D-08
   current occupation vector 
    18 10 10  3
    18 10 10  3
      97         -1713.205419657441325              0.1781952808D-08
   current occupation vector 
    18 10 10  3
    18 10 10  3
      98         -1713.205419657445873              0.2992941450D-08
   current occupation vector 
    18 10 10  3
    18 10 10  3
      99         -1713.205419657451785              0.4926510311D-08
   current occupation vector 
    18 10 10  3
    18 10 10  3
     100         -1713.205419657451785              0.1206701405D-09
   current occupation vector 
    18 10 10  3
    18 10 10  3
     101         -1713.205419657455423              0.1196573507D-08
   current occupation vector 
    18 10 10  3
    18 10 10  3
     102         -1713.205419657447692              0.7919451761D-09
   current occupation vector 
    18 10 10  3
    18 10 10  3
     103         -1713.205419657454058              0.2017290779D-09
   current occupation vector 
    18 10 10  3
    18 10 10  3
     104         -1713.205419657454513              0.2670641486D-09
   current occupation vector 
    18 10 10  3
    18 10 10  3
     105         -1713.205419657452239              0.1906101943D-09
   current occupation vector 
    18 10 10  3
    18 10 10  3

  SCF has converged.

 Density matrix saved to file den.dat
 total electron number:   82.000000000000270     
     E(SCF)=     -1713.205419657446782              0.9273160018D-10


  Final occupancies:

     Alpha population by irrep:  18   10   10    3
      Beta population by irrep:  18   10   10    3


  Eigenvector printing suppressed.

 @PUTMOS-I, Writing converged MOs to NEWMOS. 
 @PUTMOS-I, Symmetry   1 Full Blocks 14 Partial Blocksize   3
 @PUTMOS-I, Symmetry   2 Full Blocks  9 Partial Blocksize   2
 @PUTMOS-I, Symmetry   3 Full Blocks  9 Partial Blocksize   2
 @PUTMOS-I, Symmetry   4 Full Blocks  5 Partial Blocksize   0
 @PUTFOCK-I, Writing converged Fock matrix to NEWFOCK. 
 @PUTFOCK-I, Symmetry   1 Full Blocks 14 Partial Blocksize   3
 @PUTFOCK-I, Symmetry   2 Full Blocks  9 Partial Blocksize   2
 @PUTFOCK-I, Symmetry   3 Full Blocks  9 Partial Blocksize   2
 @PUTFOCK-I, Symmetry   4 Full Blocks  5 Partial Blocksize   0



  ORBITAL EIGENVALUES (ALPHA)  (1H = 27.2113834 eV)

       MO #        E(hartree)               E(eV)           FULLSYM    COMPSYM
       ----   --------------------   --------------------   -------   ---------
    1     1        -261.3267584140       -7111.0626158821      A1        A1 (1)
    2     2         -31.8891956870        -867.7491301556      A1        A1 (1)
    3    60         -27.3812111053        -745.0806333428      B1        B1 (2)
    4    98         -27.3686473173        -744.7387552896      B2        B2 (3)
    5     3         -27.3582135012        -744.4548367208      A1        A1 (1)
    6    61         -20.6849900207        -562.8671940791      E         B1 (2)
    7     4         -20.6849888452        -562.8671620917      E         A1 (1)
    8    99         -20.6502524238        -561.9219360113      E         B2 (3)
    9     5         -20.6502516641        -561.9219153395      E         A1 (1)
   10    62         -11.4044222807        -310.3301071353      E         B1 (2)
   11     6         -11.4044200495        -310.3300464224      E         A1 (1)
   12   100         -11.3822732894        -309.7274024411      E         B2 (3)
   13     7         -11.3822710180        -309.7273406345      E         A1 (1)
   14     8          -4.0766629504        -110.9316385369      A1        A1 (1)
   15    63          -2.6718585145         -72.7049664299      B1        B1 (2)
   16   101          -2.6628081167         -72.4586925848      B2        B2 (3)
   17     9          -2.6449324699         -71.9722715056      A1        A1 (1)
   18    10          -1.5224612347         -41.4282763689      A1        A1 (1)
   19    64          -1.5224082874         -41.4268355994      B1        B1 (2)
   20    11          -1.4868647124         -40.4596457522      A1        A1 (1)
   21   102          -1.4867433030         -40.4563420351      B2        B2 (3)
   22    12          -0.8426739930         -22.9303251059      A1        A1 (1)
   23    65          -0.8216970593         -22.3595137180      B1        B1 (2)
   24    13          -0.7975513568         -21.7024757518      A1        A1 (1)
   25   103          -0.7948941433         -21.6301692947      B2        B2 (3)
   26    14          -0.7065504839         -19.2262161086      A1        A1 (1)
   27   136          -0.6600668515         -17.9613321649      A2        A2 (4)
   28   104          -0.6564735378         -17.8635531285      B2        B2 (3)
   29    66          -0.6522140115         -17.7476455267      B1        B1 (2)
   30    67          -0.6456857470         -17.5700024167      B1        B1 (2)
   31    15          -0.6449276884         -17.5493745945      A1        A1 (1)
   32    16          -0.6235081929         -16.9665204889      A1        A1 (1)
   33   105          -0.6234391413         -16.9646414992      B2        B2 (3)
   34   137          -0.6151791770         -16.7398764449      A2        A2 (4)
   35   106          -0.6088911986         -16.5687718538      B2        B2 (3)
   36    17          -0.5980190452         -16.2729255193      A1        A1 (1)
   37    68          -0.5975237283         -16.2594472627      B1        B1 (2)
   38   138          -0.4303483751         -11.7103746304      A2        A2 (4)
   39    69          -0.4277290132         -11.6390981690      B1        B1 (2)
   40    18          -0.3575756711          -9.7301286797      A1        A1 (1)
   41   107          -0.3159708903          -8.5980050382      B2        B2 (3)
  +++++++++++++++++++++++++++++++++++++++++++++++++++++++++++++++++++++++++++++
   42    19           0.0100336680           0.2730299872      A1        A1 (1)
   43    20           0.0870173962           2.3678637296      A1        A1 (1)
   44    70           0.1077537565           2.9321287814      B1        B1 (2)
   45   108           0.1108062071           3.0151901837      B2        B2 (3)
   46   139           0.1136697426           3.0931109461      A2        A2 (4)
   47    21           0.1281611206           3.4874413883      A1        A1 (1)
   48    71           0.1313634749           3.5745818797      B1        B1 (2)
   49   109           0.1339591236           3.6452130729      B2        B2 (3)
   50    22           0.1557601386           4.2384488489      A1        A1 (1)
   51    72           0.1723669007           4.6903418203      B1        B1 (2)
   52   110           0.1829362342           4.9779480058      B2        B2 (3)
   53   140           0.2159524445           5.8763647627      A2        A2 (4)
   54    23           0.2711708040           7.3789327154      A1        A1 (1)
   55    24           0.2991678033           8.1407697966      A1        A1 (1)
   56   111           0.3024891362           8.2311478599      B2        B2 (3)
   57    25           0.4025608984          10.9542389472      A1        A1 (1)
   58    73           0.4261869220          11.5971357356      B1        B1 (2)
   59    26           0.4732722832          12.8783935517      A1        A1 (1)
   60    74           0.4884043394          13.2901577338      B1        B1 (2)
   61   141           0.4951460011          13.4736076756      A2        A2 (4)
   62   112           0.5037978632          13.7090368110      B2        B2 (3)
   63    27           0.5142714920          13.9940387414      A1        A1 (1)
   64    28           0.5466852622          14.8760622694      A1        A1 (1)
   65    75           0.5659077911          15.3991338718      B1        B1 (2)
   66    29           0.6602290275          17.9657451994      A1        A1 (1)
   67   113           0.6857677979          18.6606904732      B2        B2 (3)
   68   142           0.7203707368          19.6022843090      A2        A2 (4)
   69   114           0.7435554720          20.2331730269      B2        B2 (3)
   70    76           0.7469745332          20.3262104128      B1        B1 (2)
   71    30           0.7533354856          20.4993007263      A1        A1 (1)
   72   115           0.7801252691          21.2282877966      B2        B2 (3)
   73    77           0.8371297273          22.7794579641      B1        B1 (2)
   74    31           0.8429020094          22.9365297451      A1        A1 (1)
   75   143           0.8740823593          23.7849902033      A2        A2 (4)
   76    32           0.8765933179          23.8533168593      A1        A1 (1)
   77    78           0.8849350425          24.0803067244      B1        B1 (2)
   78   116           0.9162185979          24.9315755444      B2        B2 (3)
   79    33           0.9417308442          25.6257990600      A1        A1 (1)
   80    34           0.9946380887          27.0654783759      A1        A1 (1)
   81    79           1.0139358066          27.5905959755      B1        B1 (2)
   82    35           1.0229353695          27.8354865330      A1        A1 (1)
   83   117           1.0303176643          28.0363689883      B2        B2 (3)
   84    36           1.1170669030          30.3969357813      A1        A1 (1)
   85   118           1.2361195498          33.6365229968      B2        B2 (3)
   86   144           1.2447539393          33.8714766822      A2        A2 (4)
   87    80           1.2512777122          34.0489975670      B1        B1 (2)
   88    81           1.2584170691          34.2432693450      B1        B1 (2)
   89   145           1.2629158136          34.3656864060      A2        A2 (4)
   90    37           1.2659581782          34.4484733541      A1        A1 (1)
   91   119           1.2812579352          34.8648009077      B2        B2 (3)
   92    38           1.2838247396          34.9346472087      A1        A1 (1)
   93    82           1.2967858083          35.2873358160      B1        B1 (2)
   94   120           1.3141244710          35.7591448167      B2        B2 (3)
   95   146           1.3442125892          36.5778841369      A2        A2 (4)
   96    39           1.3618745174          37.0584896355      A1        A1 (1)
   97   147           1.3744224841          37.3999371689      A2        A2 (4)
   98   121           1.3775501458          37.4850451708      B2        B2 (3)
   99    40           1.3819804428          37.6055996796      A1        A1 (1)
  100    83           1.3837657229          37.6541796207      B1        B1 (2)
  101   122           1.4413100548          39.2200404981      B2        B2 (3)
  102   148           1.4584290608          39.6858723359      A2        A2 (4)
  103    41           1.4727741767          40.0762227849      A1        A1 (1)
  104    84           1.4780034975          40.2185198370      B1        B1 (2)
  105    85           1.4942891417          40.6616747447      B1        B1 (2)
  106   123           1.5281990456          41.5844101419      B2        B2 (3)
  107    42           1.5306569932          41.6512942967      A1        A1 (1)
  108    86           1.6157324411          43.9663149267      B1        B1 (2)
  109   124           1.6166770366          43.9920186761      B2        B2 (3)
  110    43           1.6717108931          45.4895660460      A1        A1 (1)
  111   149           1.6859122281          45.8760040171      A2        A2 (4)
  112   125           1.7258401502          46.9624980143      B2        B2 (3)
  113    87           1.7443576507          47.4663848193      B1        B1 (2)
  114    44           1.7737941225          48.2673919396      A1        A1 (1)
  115    45           1.8998837373          51.6984647911      A1        A1 (1)
  116    46           2.1054930969          57.2933799068      A1        A1 (1)
  117    88           2.1195887997          57.6769434791      B1        B1 (2)
  118    47           2.1265124232          57.8653448538      A1        A1 (1)
  119   126           2.1448360842          58.3639570177      B2        B2 (3)
  120    89           2.2198684905          60.4056925933      B1        B1 (2)
  121    48           2.2549889738          61.3613695289      A1        A1 (1)
  122   150           2.3518433608          63.9969113888      A2        A2 (4)
  123    49           2.4760231181          67.3760143733      A1        A1 (1)
  124   127           2.4849696742          67.6194625414      B2        B2 (3)
  125    90           2.8406711163          77.2985908598      B1        B1 (2)
  126    91           2.9210149459          79.4848576092      B1        B1 (2)
  127   128           2.9221472593          79.5156694248      B2        B2 (3)
  128    50           2.9227558965          79.5322312847      A1        A1 (1)
  129   151           2.9234498855          79.5511156847      A2        A2 (4)
  130   152           2.9473205011          80.2006681593      A2        A2 (4)
  131   129           2.9486365257          80.2364790083      B2        B2 (3)
  132    92           2.9526716201          80.3462795091      B1        B1 (2)
  133    51           2.9566283297          80.4539470517      A1        A1 (1)
  134    52           2.9844684000          81.2115138781      A1        A1 (1)
  135   130           3.0151496299          82.0463925884      B2        B2 (3)
  136    53           3.2609804647          88.7357896839      A1        A1 (1)
  137   131           3.2863581593          89.4263518625      B2        B2 (3)
  138   153           3.3263249624          90.5139038644      A2        A2 (4)
  139    93           3.3452693435          91.0294066819      B1        B1 (2)
  140    94           3.4864049727          94.8699024002      B1        B1 (2)
  141    54           3.5116237900          95.5561413051      A1        A1 (1)
  142   154           3.5182406264          95.7361945782      A2        A2 (4)
  143   132           3.5276573246          95.9924359634      B2        B2 (3)
  144    55           3.5512335606          96.6339779617      A1        A1 (1)
  145    95           3.6899580862         100.4088642139      B1        B1 (2)
  146   155           3.7941135009         103.2430771374      A2        A2 (4)
  147    56           3.8188568842         103.9163788251      A1        A1 (1)
  148    96           3.8496287862         104.7537248487      B1        B1 (2)
  149    57           3.8687210573         105.2732519566      A1        A1 (1)
  150   133           3.8696493252         105.2985114116      B2        B2 (3)
  151   134           3.9327329051         107.0151028905      B2        B2 (3)
  152    58           4.0559542908         110.3681272606      A1        A1 (1)
  153   135           4.2681495598         116.1422540803      B2        B2 (3)
  154    59           4.4426840708         120.8915795765      A1        A1 (1)
  155    97           4.4513166325         121.1264835224      B1        B1 (2)


  VSCF finished.

 @CHECKOUT-I, Total execution time (CPU/WALL):       16.80/      11.30 seconds.
--executable xvscf finished with status     0 in       11.32 seconds (walltime).
 --invoking executable--
/opt/cfour/2.1/bin/xvtran
 @GETMEM-I,  Allocated   30517 MB of main memory.
  Full RHF integral transformation
  The following  17 MOs will be dropped:
    1  2  3  4  5  6  7  8  9 19 20 21 22 29 30 31 32
  There are 138 active molecular orbitals.
  Transformation of IIII integrals :
  1 pass through the AO integral file was required.
     2091586 AO integrals were read.
     1190225 MO integrals were written to HF2.
  Transformation of IIJJ integrals :
  1 pass through the AO integral file was required.
     3768299 AO integrals were read.
     2388925 MO integrals were written to HF2.
  Transformation of IJIJ integrals :
  1 pass through the AO integral file was required.
     7180751 AO integrals were read.
     4524026 MO integrals were written to HF2.
  Transformation of IJKL integrals :
  1 pass through the AO integral file was required.
     4984802 AO integrals were read.
     3468000 MO integrals were written to HF2.
  Summary of active molecular orbitals: 
------------------------------------------------------------------------

  Index      Eigenvalue    Symmetry    Index      Eigenvalue    Symmetry
------------------------------------------------------------------------
     1        -1.5224612        1        70         0.4884043        2
     2        -1.4868647        1        71         0.5659078        2
     3        -0.8426740        1        72         0.7469745        2
     4        -0.7975514        1        73         0.8371297        2
     5        -0.7065505        1        74         0.8849350        2
     6        -0.6449277        1        75         1.0139358        2
     7        -0.6235082        1        76         1.2512777        2
     8        -0.5980190        1        77         1.2584171        2
     9        -0.3575757        1        78         1.2967858        2
    10        -1.5224083        2        79         1.3837657        2
    11        -0.8216971        2        80         1.4780035        2
    12        -0.6522140        2        81         1.4942891        2
    13        -0.6456857        2        82         1.6157324        2
    14        -0.5975237        2        83         1.7443577        2
    15        -0.4277290        2        84         2.1195888        2
    16        -1.4867433        3        85         2.2198685        2
    17        -0.7948941        3        86         2.8406711        2
    18        -0.6564735        3        87         2.9210149        2
    19        -0.6234391        3        88         2.9526716        2
    20        -0.6088912        3        89         3.3452693        2
    21        -0.3159709        3        90         3.4864050        2
    22        -0.6600669        4        91         3.6899581        2
    23        -0.6151792        4        92         3.8496288        2
    24        -0.4303484        4        93         4.4513166        2
    25         0.0100337        1        94         0.1108062        3
    26         0.0870174        1        95         0.1339591        3
    27         0.1281611        1        96         0.1829362        3
    28         0.1557601        1        97         0.3024891        3
    29         0.2711708        1        98         0.5037979        3
    30         0.2991678        1        99         0.6857678        3
    31         0.4025609        1       100         0.7435555        3
    32         0.4732723        1       101         0.7801253        3
    33         0.5142715        1       102         0.9162186        3
    34         0.5466853        1       103         1.0303177        3
    35         0.6602290        1       104         1.2361195        3
    36         0.7533355        1       105         1.2812579        3
    37         0.8429020        1       106         1.3141245        3
    38         0.8765933        1       107         1.3775501        3
    39         0.9417308        1       108         1.4413101        3
    40         0.9946381        1       109         1.5281990        3
    41         1.0229354        1       110         1.6166770        3
    42         1.1170669        1       111         1.7258402        3
    43         1.2659582        1       112         2.1448361        3
    44         1.2838247        1       113         2.4849697        3
    45         1.3618745        1       114         2.9221473        3
    46         1.3819804        1       115         2.9486365        3
    47         1.4727742        1       116         3.0151496        3
    48         1.5306570        1       117         3.2863582        3
    49         1.6717109        1       118         3.5276573        3
    50         1.7737941        1       119         3.8696493        3
    51         1.8998837        1       120         3.9327329        3
    52         2.1054931        1       121         4.2681496        3
    53         2.1265124        1       122         0.1136697        4
    54         2.2549890        1       123         0.2159524        4
    55         2.4760231        1       124         0.4951460        4
    56         2.9227559        1       125         0.7203707        4
    57         2.9566283        1       126         0.8740824        4
    58         2.9844684        1       127         1.2447539        4
    59         3.2609805        1       128         1.2629158        4
    60         3.5116238        1       129         1.3442126        4
    61         3.5512336        1       130         1.3744225        4
    62         3.8188569        1       131         1.4584291        4
    63         3.8687211        1       132         1.6859122        4
    64         4.0559543        1       133         2.3518434        4
    65         4.4426841        1       134         2.9234499        4
    66         0.1077538        2       135         2.9473205        4
    67         0.1313635        2       136         3.3263250        4
    68         0.1723669        2       137         3.5182406        4
    69         0.4261869        2       138         3.7941135        4
------------------------------------------------------------------------
  -1.5224612346947657       -1.4868647123689223      -0.84267399304388479      -0.79755135682694855      -0.70655048388945862      -0.64492768840812920      -0.62350819285949333      -0.59801904519417204      -0.35757567105955651       -1.5224082873872877      -0.82169705925209990      -0.65221401153449698      -0.64568574696867509      -0.59752372834951406      -0.42772901318385731       -1.4867433029905359      -0.79489414326129593      -0.65647353778105266      -0.62343914125385824      -0.60889119859233654      -0.31597089026228953      -0.66006685146630406      -0.61517917699351854      -0.43034837509946344        1.0033668011435863E-002   8.7017396167925823E-002  0.12816112055204273       0.15576013856337848       0.27117080403333432       0.29916780330317660       0.40256089836402359       0.47327228323463649       0.51427149203414357       0.54668526222085578       0.66022902751059798       0.75333548555757535       0.84290200935105219       0.87659331790219275       0.94173084415811237       0.99463808870091630        1.0229353695059971        1.1170669030128930        1.2659581781545475        1.2838247396399345        1.3618745173946758        1.3819804427714704        1.4727741767420595        1.5306569932316851        1.6717108930965563        1.7737941224860381        1.8998837373018311        2.1054930969385990        2.1265124232454773        2.2549889738008262        2.4760231180783916        2.9227558965154476        2.9566283297357372        2.9844684000189425        3.2609804646659151        3.5116237899590428        3.5512335606462693        3.8188568841773827        3.8687210572529431        4.0559542908284918        4.4426840708316124       0.10775375651649724       0.13136347487895189       0.17236690069566046       0.42618692203468850       0.48840433940546940       0.56590779106680955       0.74697453319319052       0.83712972726434132       0.88493504245776988        1.0139358065682629        1.2512777122175651        1.2584170691229941        1.2967858082512529        1.3837657228656701        1.4780034975006169        1.4942891416785447        1.6157324411037479        1.7443576506758551        2.1195887997055904        2.2198684905265917        2.8406711163314839        2.9210149458699042        2.9526716201113818        3.3452693434871583        3.4864049727160578        3.6899580862152384        3.8496287861906211        4.4513166325219276       0.11080620707199562       0.13395912362387893       0.18293623417066648       0.30248913621402274       0.50379786317831188       0.68576779794176812       0.74355547196982930       0.78012526906619761       0.91621859785203785        1.0303176643458196        1.2361195497623398        1.2812579351506774        1.3141244710382194        1.3775501458268888        1.4413100547524902        1.5281990456190400        1.6166770365711387        1.7258401502050225        2.1448360842128684        2.4849696741785148        2.9221472593264974        2.9486365257090466        3.0151496299313161        3.2863581593014954        3.5276573245951961        3.8696493252026229        3.9327329050999937        4.2681495598023949       0.11366974257281545       0.21595244447141179       0.49514600112438312       0.72037073679297015       0.87408235934623468        1.2447539393473011        1.2629158136077372        1.3442125892395769        1.3744224841192223        1.4584290608275914        1.6859122280839365        2.3518433608485969        2.9234498854870465        2.9473205011451657        3.3263249623829143        3.5182406263900914        3.7941135009472231     
 @CHECKOUT-I, Total execution time (CPU/WALL):       30.75/       3.68 seconds.
--executable xvtran finished with status     0 in        3.70 seconds (walltime).
 --invoking executable--
/opt/cfour/2.1/bin/xintprc
 @GETMEM-I,  Allocated   30517 MB of main memory.
  @GMOIAA-I, Processing MO integrals for spin case AA.
  @GMOIAA-I, Generation of integral list completed.
                      TYPE                NUMBER
                      ----               --------
                      PPPP               5404472
                      PPPH               4508460
                      PPHH                942264
                      PHPH                496977
                      PHHH                207360
                      HHHH                 11643

                     TOTAL              11571176

  @FORMT2-I, Second-order MP correlation energies:
            ------------------------------------------------
            E(SCF)                  =  -1713.205419657447 a.u.
            E2(AA)                  =     -0.283716488079 a.u.
            E2(AB)                  =     -1.242384140473 a.u.
            E2(TOT)                 =     -1.809817116632 a.u.
            Total MP2 energy        =  -1715.015236774078 a.u.
            ------------------------------------------------
   Largest T2 amplitudes for spin case AB:
       _       _                 _       _                 _       _
   i   j   a   b             i   j   a   b             i   j   a   b
-----------------------------------------------------------------------------
[ 24  24 122 122]-0.09122 [ 21  21  96  96]-0.06815 [ 24  21 122  96]-0.06686
[ 21  24  96 122]-0.06686 [ 24  15 122  67] 0.06613 [ 15  24  67 122] 0.06613
[ 15  15  67  67]-0.06216 [ 24   9 122  28]-0.05713 [  9  24  28 122]-0.05713
[  9   9  28  28]-0.05525 [  9  21  28  96]-0.05505 [ 21   9  96  28]-0.05505
[ 15  21  67  96] 0.05394 [ 21  15  96  67] 0.05394 [ 15   9  67  28] 0.04732
-----------------------------------------------------------------------------
   Norm of T2AB vector (  1881792 symmetry allowed elements):  0.7003336307.
-----------------------------------------------------------------------------
 @CHECKOUT-I, Total execution time (CPU/WALL):        5.01/       1.30 seconds.
--executable xintprc finished with status     0 in        1.34 seconds (walltime).
  calling xvcc 
 --invoking executable--
/opt/cfour/2.1/bin/xvcc
 @GETMEM-I,  Allocated   30517 MB of main memory.
   CCSD(T) energy will be calculated.
   The total correlation energy is -1.809817116632 a.u.
[...]
 -------------------------------------------------------
         1                S              1.99997795
         1                S              1.99961200
         1                S              2.02043095
         1                S              0.31638011
         1                S              0.01526788
         1                S             -0.05387954
         1                P              1.99996927
         1                P              1.99918128
         1                P              0.82521055
         1                P             -1.07631118
         1                P              0.27703251
         1                P              1.99996808
         1                P              1.99680510
         1                P              0.01127055
         1                P              0.59522249
         1                P             -0.14136877
         1                P              1.99998961
         1                P              1.99984774
         1                P              0.16034457
         1                P             -0.13121446
         1                P              0.05242721
         1                D              0.23565178
         1                D              0.03272338
         1                D             -0.03760560
         1                D              1.69000105
         1                D              0.01930897
         1                D              0.02627921
         1                D              1.79796462
         1                D              0.00965941
         1                D              0.01230252
         1                D              0.73712501
         1                D              0.02150042
         1                D             -0.00627520
         1                D              1.53737578
         1                D              0.01758528
         1                D             -0.02423935
         1                D              0.99847567
         1                D              0.01181355
         1                D              0.01888481
         1                F              0.00103749
         1                F              0.00096028
         1                F              0.00054352
         1                F              0.00092538
         1                F              0.00015548
         1                F              0.00076386
         1                F              0.00035856
         1                F              0.00119506
         1                F              0.00051282
         1                F              0.00028945
         3                S              2.00285699
         4                S              2.00285699
         3                S              1.67533102
         4                S              1.67533102
         3                S             -0.12168022
         4                S             -0.12168022
         3                P              0.62882787
         4                P              0.62882787
         3                P             -0.07568729
         4                P             -0.07568729
         3                P              1.02609398
         4                P              1.02609398
         3                P             -0.19489811
         4                P             -0.19489811
         3                P              0.85563728
         4                P              0.85563728
         3                P             -0.12791381
         4                P             -0.12791381
         3                D              0.00656538
         4                D              0.00656538
         3                D              0.04087971
         4                D              0.04087971
         3                D              0.01771625
         4                D              0.01771625
         3                D              0.03686998
         4                D              0.03686998
         3                D              0.03544242
         4                D              0.03544242
         3                D              0.02611086
         4                D              0.02611086
         5                S              2.00293656
         6                S              2.00293656
         5                S              1.69618598
         6                S              1.69618598
         5                S             -0.07206427
         6                S             -0.07206427
         5                P              1.21483591
         6                P              1.21483591
         5                P             -0.22474959
         6                P             -0.22474959
         5                P              0.64779749
         6                P              0.64779749
         5                P             -0.09584791
         6                P             -0.09584791
         5                P              0.63665308
         6                P              0.63665308
         5                P             -0.08038705
         6                P             -0.08038705
         5                D              0.02300833
         6                D              0.02300833
         5                D              0.05926114
         6                D              0.05926114
         5                D              0.05239051
         6                D              0.05239051
         5                D              0.00574549
         6                D              0.00574549
         5                D              0.00131676
         6                D              0.00131676
         5                D              0.00706883
         6                D              0.00706883
         7                S              2.00194354
         8                S              2.00194354
         7                S              1.84857025
         8                S              1.84857025
         7                S             -0.08247163
         8                S             -0.08247163
         7                P              1.48828936
         8                P              1.48828936
         7                P             -0.01138127
         8                P             -0.01138127
         7                P              1.52745355
         8                P              1.52745355
         7                P             -0.10112486
         8                P             -0.10112486
         7                P              1.53265944
         8                P              1.53265944
         7                P             -0.05485696
         8                P             -0.05485696
         7                D              0.00169217
         8                D              0.00169217
         7                D              0.00478065
         8                D              0.00478065
         7                D              0.00222595
         8                D              0.00222595
         7                D              0.00484218
         8                D              0.00484218
         7                D              0.00755109
         8                D              0.00755109
         7                D              0.00295042
         8                D              0.00295042
         9                S              2.00196615
        10                S              2.00196615
         9                S              1.85467678
        10                S              1.85467678
         9                S             -0.08666491
        10                S             -0.08666491
         9                P              1.53366717
        10                P              1.53366717
         9                P             -0.15538865
        10                P             -0.15538865
         9                P              1.52824298
        10                P              1.52824298
         9                P             -0.02053862
        10                P             -0.02053862
         9                P              1.47707625
        10                P              1.47707625
         9                P             -0.02325651
        10                P             -0.02325651
         9                D              0.00692348
        10                D              0.00692348
         9                D              0.00706047
        10                D              0.00706047
         9                D              0.00744949
        10                D              0.00744949
         9                D              0.00175632
        10                D              0.00175632
         9                D              0.00008773
        10                D              0.00008773
         9                D              0.00179586
        10                D              0.00179586
 -------------------------------------------------------
  Population analysis by atoms (atomic charges).
 -------------------------------------------------------
     Z-matrix
      Center          Function          Population
 -------------------------------------------------------
         1                              25.97143713
         3                               5.83215230
         4                               5.83215230
         5                               5.87415127
         6                               5.87415127
         7                               8.17312389
         8                               8.17312389
         9                               8.13485398
        10                               8.13485398
 -------------------------------------------------------

  Mulliken population analysis of CCSD(T) density.
   Total density is analyzed.

  Population analysis by orbitals.
 -------------------------------------------------------
     Z-matrix
      Center          Function          Population
 -------------------------------------------------------
         1                S              1.99998256
         1                S              1.99968926
         1                S              2.01653008
         1                S              0.44672986
         1                S              0.02985164
         1                S             -0.05009321
         1                P              1.99998165
         1                P              1.99565996
         1                P              0.83888565
         1                P             -0.95205109
         1                P              0.25162218
         1                P              1.99997756
         1                P              1.99537272
         1                P              0.18432318
         1                P              0.40261784
         1                P             -0.08915269
         1                P              1.99999291
         1                P              2.00085124
         1                P              0.18340968
         1                P             -0.14700475
         1                P              0.05623732
         1                D              0.46320042
         1                D              0.02267064
         1                D             -0.02797410
         1                D              1.49182796
         1                D              0.04186595
         1                D              0.04861110
         1                D              1.55338215
         1                D              0.03537275
         1                D              0.04970242
         1                D              0.74135517
         1                D              0.02336126
         1                D              0.00748672
         1                D              1.46899684
         1                D              0.03060928
         1                D             -0.00870006
         1                D              0.96124083
         1                D              0.02140010
         1                D              0.03075311
         1                F              0.00182551
         1                F              0.00283432
         1                F              0.00267474
         1                F              0.00305062
         1                F              0.00341410
         1                F              0.00303002
         1                F              0.00151205
         1                F              0.00348158
         1                F              0.00311407
         1                F              0.00150713
         3                S              2.00341453
         4                S              2.00341453
         3                S              1.60113850
         4                S              1.60113850
         3                S             -0.15456154
         4                S             -0.15456154
         3                P              0.76288869
         4                P              0.76288869
         3                P             -0.08936460
         4                P             -0.08936460
         3                P              1.01873753
         4                P              1.01873753
         3                P             -0.18574433
         4                P             -0.18574433
         3                P              0.93759943
         4                P              0.93759943
         3                P             -0.13096366
         4                P             -0.13096366
         3                D              0.00872016
         4                D              0.00872016
         3                D              0.04080776
         4                D              0.04080776
         3                D              0.01947536
         4                D              0.01947536
         3                D              0.03502849
         4                D              0.03502849
         3                D              0.03590070
         4                D              0.03590070
         3                D              0.02494487
         4                D              0.02494487
         5                S              2.00345050
         6                S              2.00345050
         5                S              1.61812696
         6                S              1.61812696
         5                S             -0.11216661
         6                S             -0.11216661
         5                P              1.13539776
         6                P              1.13539776
         5                P             -0.21015350
         6                P             -0.21015350
         5                P              0.78594254
         6                P              0.78594254
         5                P             -0.10797257
         6                P             -0.10797257
         5                P              0.77458227
         6                P              0.77458227
         5                P             -0.09774606
         6                P             -0.09774606
         5                D              0.02495763
         6                D              0.02495763
         5                D              0.05670198
         6                D              0.05670198
         5                D              0.05071395
         6                D              0.05071395
         5                D              0.00798516
         6                D              0.00798516
         5                D              0.00482255
         6                D              0.00482255
         5                D              0.00929185
         6                D              0.00929185
         7                S              2.00209373
         8                S              2.00209373
         7                S              1.86345770
         8                S              1.86345770
         7                S             -0.12030161
         8                S             -0.12030161
         7                P              1.46764710
         8                P              1.46764710
         7                P             -0.04231435
         8                P             -0.04231435
         7                P              1.50339396
         8                P              1.50339396
         7                P             -0.10291690
         8                P             -0.10291690
         7                P              1.50438238
         8                P              1.50438238
         7                P             -0.07086820
         8                P             -0.07086820
         7                D              0.00401075
         8                D              0.00401075
         7                D              0.00814473
         8                D              0.00814473
         7                D              0.00577908
         8                D              0.00577908
         7                D              0.00705592
         8                D              0.00705592
         7                D              0.01066800
         8                D              0.01066800
         7                D              0.00532649
         8                D              0.00532649
         9                S              2.00211670
        10                S              2.00211670
         9                S              1.86891875
        10                S              1.86891875
         9                S             -0.12368329
        10                S             -0.12368329
         9                P              1.51857060
        10                P              1.51857060
         9                P             -0.14513468
        10                P             -0.14513468
         9                P              1.49590312
        10                P              1.49590312
         9                P             -0.04772039
        10                P             -0.04772039
         9                P              1.45239186
        10                P              1.45239186
         9                P             -0.05316025
        10                P             -0.05316025
         9                D              0.00882389
        10                D              0.00882389
         9                D              0.01041286
        10                D              0.01041286
         9                D              0.01059848
        10                D              0.01059848
         9                D              0.00407650
        10                D              0.00407650
         9                D              0.00376234
        10                D              0.00376234
         9                D              0.00409833
        10                D              0.00409833
 -------------------------------------------------------
  Population analysis by atoms (atomic charges).
 -------------------------------------------------------
     Z-matrix
      Center          Function          Population
 -------------------------------------------------------
         1                              26.14502021
         3                               5.92802187
         4                               5.92802187
         5                               5.94393442
         6                               5.94393442
         7                               8.04555879
         8                               8.04555879
         9                               8.00997482
        10                               8.00997482
 -------------------------------------------------------
 @CHECKOUT-I, Total execution time (CPU/WALL):        1.80/       0.14 seconds.
--executable xprops finished with status     0 in        0.16 seconds (walltime).
  The final electronic energy is     -1714.953300710092890 a.u. 
  This computation required                          531.47 seconds (walltime).
Attempting to clean /scratch/jearias... save is False. TIME: Fri 22 Aug 2025 02:50:00 PM PDT
Total of 532 seconds elapsed for this process.
