
     Program PWSCF v.6.7MaX starts on 29Apr2021 at 19:40:42 

     This program is part of the open-source Quantum ESPRESSO suite
     for quantum simulation of materials; please cite
         "P. Giannozzi et al., J. Phys.:Condens. Matter 21 395502 (2009);
         "P. Giannozzi et al., J. Phys.:Condens. Matter 29 465901 (2017);
          URL http://www.quantum-espresso.org", 
     in publications or presentations arising from this work. More details at
     http://www.quantum-espresso.org/quote

     Parallel version (MPI), running on    20 processors

     MPI processes distributed on     1 nodes
     R & G space division:  proc/nbgrp/npool/nimage =      20
     Waiting for input...
     Reading input from standard input
Warning: card  &CELL ignored
Warning: card  / ignored

     Current dimensions of program PWSCF are:
     Max number of different atomic species (ntypx) = 10
     Max number of k-points (npk) =  40000
     Max angular momentum in pseudopotentials (lmaxx) =  3
     file Ga.pbe-dn-kjpaw_psl.1.0.0.UPF: wavefunction(s)  4S renormalized

     Subspace diagonalization in iterative solution of the eigenvalue problem:
     a serial algorithm will be used


     Parallelization info
     --------------------
     sticks:   dense  smooth     PW     G-vecs:    dense   smooth      PW
     Min         406     162     45                24323     6146     901
     Max         407     163     46                24330     6152     904
     Sum        8137    3259    913               486569   122997   18053


     Title: 
     Mn2CoGa                                                                    


     bravais-lattice index     =            2
     lattice parameter (alat)  =      10.8849  a.u.
     unit-cell volume          =     322.4124 (a.u.)^3
     number of atoms/cell      =            4
     number of atomic types    =            3
     number of electrons       =        60.00
     number of Kohn-Sham states=           36
     kinetic-energy cutoff     =     200.0000  Ry
     charge density cutoff     =    2000.0000  Ry
     scf convergence threshold =      1.0E-06
     mixing beta               =       0.7000
     number of iterations used =            8  plain     mixing
     Exchange-correlation= SLA  PW   PBX  PBC
                           (   1   4   3   4   0   0   0)

     celldm(1)=  10.884886  celldm(2)=   0.000000  celldm(3)=   0.000000
     celldm(4)=   0.000000  celldm(5)=   0.000000  celldm(6)=   0.000000

     crystal axes: (cart. coord. in units of alat)
               a(1) = (  -0.500000   0.000000   0.500000 )  
               a(2) = (   0.000000   0.500000   0.500000 )  
               a(3) = (  -0.500000   0.500000   0.000000 )  

     reciprocal axes: (cart. coord. in units 2 pi/alat)
               b(1) = ( -1.000000 -1.000000  1.000000 )  
               b(2) = (  1.000000  1.000000  1.000000 )  
               b(3) = ( -1.000000  1.000000 -1.000000 )  


     PseudoPot. # 1 for Mn read from file:
     /home/ug2018/mst/18114017/QE_sample/SSSP_efficiency_pseudos/mn_pbe_v1.5.uspp.F.UPF
     MD5 check sum: 82ef2b46521d7a7d9e736dc3972e4928
     Pseudo is Ultrasoft + core correction, Zval = 15.0
     Generated by new atomic code, or converted to UPF format
     Using radial grid of  859 points,  6 beta functions with: 
                l(1) =   0
                l(2) =   0
                l(3) =   1
                l(4) =   1
                l(5) =   2
                l(6) =   2
     Q(r) pseudized with  8 coefficients,  rinner =    0.950   0.950   0.950
                                                       0.950   0.950

     PseudoPot. # 2 for Co read from file:
     /home/ug2018/mst/18114017/QE_sample/SSSP_efficiency_pseudos/Co_pbe_v1.2.uspp.F.UPF
     MD5 check sum: 5f91765df6ddd3222702df6e7b74a16d
     Pseudo is Ultrasoft + core correction, Zval = 17.0
     Generated by new atomic code, or converted to UPF format
     Using radial grid of  863 points,  6 beta functions with: 
                l(1) =   0
                l(2) =   0
                l(3) =   1
                l(4) =   1
                l(5) =   2
                l(6) =   2
     Q(r) pseudized with  8 coefficients,  rinner =    1.200   1.200   1.200
                                                       1.200   1.200

     PseudoPot. # 3 for Ga read from file:
     /home/ug2018/mst/18114017/QE_sample/SSSP_efficiency_pseudos/Ga.pbe-dn-kjpaw_psl.1.0.0.UPF
     MD5 check sum: a27b4342b1af7e5f338de752e9ed7044
     Pseudo is Projector augmented-wave + core cor, Zval = 13.0
     Generated using "atomic" code by A. Dal Corso  v.5.1
     Shape of augmentation charge: PSQ
     Using radial grid of 1205 points,  6 beta functions with: 
                l(1) =   0
                l(2) =   0
                l(3) =   1
                l(4) =   1
                l(5) =   2
                l(6) =   2
     Q(r) pseudized with 0 coefficients 


     atomic species   valence    mass     pseudopotential
        Mn            15.00    54.93804     Mn( 1.00)
        Co            17.00    58.93319     Co( 1.00)
        Ga            13.00    69.72300     Ga( 1.00)

     Starting magnetic structure 
     atomic species   magnetization
        Mn          -0.167
        Co          -0.083
        Ga           0.005

     24 Sym. Ops. (no inversion) found



   Cartesian axes

     site n.     atom                  positions (alat units)
         1           Co  tau(   1) = (   0.5000000   0.5000000   0.5000000  )
         2           Mn  tau(   2) = (   0.2500000   0.2500000   0.2500000  )
         3           Ga  tau(   3) = (   0.7500000   0.7500000   0.7500000  )
         4           Mn  tau(   4) = (   0.0000000   0.0000000   0.0000000  )

     number of k points=    72  Marzari-Vanderbilt smearing, width (Ry)=  0.0100
                       cart. coord. in units 2pi/alat
        k(    1) = (   0.0000000   0.0000000   0.0000000), wk =   0.0005787
        k(    2) = (  -0.0833333   0.0833333  -0.0833333), wk =   0.0046296
        k(    3) = (  -0.1666667   0.1666667  -0.1666667), wk =   0.0046296
        k(    4) = (  -0.2500000   0.2500000  -0.2500000), wk =   0.0046296
        k(    5) = (  -0.3333333   0.3333333  -0.3333333), wk =   0.0046296
        k(    6) = (  -0.4166667   0.4166667  -0.4166667), wk =   0.0046296
        k(    7) = (   0.5000000  -0.5000000   0.5000000), wk =   0.0023148
        k(    8) = (   0.0000000   0.1666667   0.0000000), wk =   0.0034722
        k(    9) = (  -0.0833333   0.2500000  -0.0833333), wk =   0.0138889
        k(   10) = (  -0.1666667   0.3333333  -0.1666667), wk =   0.0138889
        k(   11) = (  -0.2500000   0.4166667  -0.2500000), wk =   0.0138889
        k(   12) = (  -0.3333333   0.5000000  -0.3333333), wk =   0.0138889
        k(   13) = (   0.5833333  -0.4166667   0.5833333), wk =   0.0138889
        k(   14) = (   0.5000000  -0.3333333   0.5000000), wk =   0.0138889
        k(   15) = (   0.4166667  -0.2500000   0.4166667), wk =   0.0138889
        k(   16) = (   0.3333333  -0.1666667   0.3333333), wk =   0.0138889
        k(   17) = (   0.2500000  -0.0833333   0.2500000), wk =   0.0138889
        k(   18) = (   0.1666667  -0.0000000   0.1666667), wk =   0.0069444
        k(   19) = (   0.0000000   0.3333333   0.0000000), wk =   0.0034722
        k(   20) = (  -0.0833333   0.4166667  -0.0833333), wk =   0.0138889
        k(   21) = (  -0.1666667   0.5000000  -0.1666667), wk =   0.0138889
        k(   22) = (  -0.2500000   0.5833333  -0.2500000), wk =   0.0138889
        k(   23) = (   0.6666667  -0.3333333   0.6666667), wk =   0.0138889
        k(   24) = (   0.5833333  -0.2500000   0.5833333), wk =   0.0138889
        k(   25) = (   0.5000000  -0.1666667   0.5000000), wk =   0.0138889
        k(   26) = (   0.4166667  -0.0833333   0.4166667), wk =   0.0138889
        k(   27) = (   0.3333333   0.0000000   0.3333333), wk =   0.0069444
        k(   28) = (   0.0000000   0.5000000   0.0000000), wk =   0.0034722
        k(   29) = (  -0.0833333   0.5833333  -0.0833333), wk =   0.0138889
        k(   30) = (  -0.1666667   0.6666667  -0.1666667), wk =   0.0138889
        k(   31) = (   0.7500000  -0.2500000   0.7500000), wk =   0.0138889
        k(   32) = (   0.6666667  -0.1666667   0.6666667), wk =   0.0138889
        k(   33) = (   0.5833333  -0.0833333   0.5833333), wk =   0.0138889
        k(   34) = (   0.5000000   0.0000000   0.5000000), wk =   0.0069444
        k(   35) = (   0.0000000   0.6666667   0.0000000), wk =   0.0034722
        k(   36) = (  -0.0833333   0.7500000  -0.0833333), wk =   0.0138889
        k(   37) = (   0.8333333  -0.1666667   0.8333333), wk =   0.0138889
        k(   38) = (   0.7500000  -0.0833333   0.7500000), wk =   0.0138889
        k(   39) = (   0.6666667  -0.0000000   0.6666667), wk =   0.0069444
        k(   40) = (   0.0000000   0.8333333   0.0000000), wk =   0.0034722
        k(   41) = (   0.9166667  -0.0833333   0.9166667), wk =   0.0138889
        k(   42) = (   0.8333333   0.0000000   0.8333333), wk =   0.0069444
        k(   43) = (   0.0000000  -1.0000000   0.0000000), wk =   0.0017361
        k(   44) = (  -0.1666667   0.3333333   0.0000000), wk =   0.0138889
        k(   45) = (  -0.2500000   0.4166667  -0.0833333), wk =   0.0277778
        k(   46) = (  -0.3333333   0.5000000  -0.1666667), wk =   0.0277778
        k(   47) = (   0.5833333  -0.4166667   0.7500000), wk =   0.0277778
        k(   48) = (   0.5000000  -0.3333333   0.6666667), wk =   0.0138889
        k(   49) = (  -0.1666667   0.5000000   0.0000000), wk =   0.0138889
        k(   50) = (  -0.2500000   0.5833333  -0.0833333), wk =   0.0277778
        k(   51) = (   0.6666667  -0.3333333   0.8333333), wk =   0.0277778
        k(   52) = (   0.5833333  -0.2500000   0.7500000), wk =   0.0277778
        k(   53) = (   0.5000000  -0.1666667   0.6666667), wk =   0.0277778
        k(   54) = (   0.4166667  -0.0833333   0.5833333), wk =   0.0277778
        k(   55) = (   0.3333333   0.0000000   0.5000000), wk =   0.0138889
        k(   56) = (  -0.1666667   0.6666667  -0.0000000), wk =   0.0138889
        k(   57) = (   0.7500000  -0.2500000   0.9166667), wk =   0.0277778
        k(   58) = (   0.6666667  -0.1666667   0.8333333), wk =   0.0277778
        k(   59) = (   0.5833333  -0.0833333   0.7500000), wk =   0.0277778
        k(   60) = (   0.5000000   0.0000000   0.6666667), wk =   0.0138889
        k(   61) = (   0.8333333  -0.1666667   1.0000000), wk =   0.0138889
        k(   62) = (   0.7500000  -0.0833333   0.9166667), wk =   0.0277778
        k(   63) = (   0.6666667   0.0000000   0.8333333), wk =   0.0138889
        k(   64) = (  -0.1666667  -1.0000000  -0.0000000), wk =   0.0069444
        k(   65) = (   0.6666667  -0.3333333   1.0000000), wk =   0.0138889
        k(   66) = (   0.5833333  -0.2500000   0.9166667), wk =   0.0277778
        k(   67) = (   0.5000000  -0.1666667   0.8333333), wk =   0.0138889
        k(   68) = (   0.6666667  -0.1666667   1.0000000), wk =   0.0138889
        k(   69) = (   0.5833333  -0.0833333   0.9166667), wk =   0.0277778
        k(   70) = (   0.5000000   0.0000000   0.8333333), wk =   0.0138889
        k(   71) = (  -0.3333333  -1.0000000   0.0000000), wk =   0.0069444
        k(   72) = (  -0.5000000  -1.0000000   0.0000000), wk =   0.0034722

     Dense  grid:   486569 G-vectors     FFT dimensions: ( 120, 120, 120)

     Smooth grid:   122997 G-vectors     FFT dimensions: (  72,  72,  72)

     Estimated max dynamical RAM per process >     176.13 MB

     Estimated total dynamical RAM >       3.44 GB

     Check: negative core charge=   -0.000003
     Generating pointlists ...
     new r_m :   0.1786 (alat units)  1.9442 (a.u.) for type    1
     new r_m :   0.1786 (alat units)  1.9442 (a.u.) for type    2
     new r_m :   0.1786 (alat units)  1.9442 (a.u.) for type    3

     Initial potential from superposition of free atoms

     starting charge   57.99687, renormalised to   60.00000
     Starting wfcs are   48 randomized atomic wfcs
     Checking if some PAW data can be deallocated... 

     total cpu time spent up to now is     1200.1 secs

     Self-consistent Calculation

     iteration #  1     ecut=   200.00 Ry     beta= 0.70
     Davidson diagonalization with overlap
     ethr =  1.00E-02,  avg # of iterations =  2.1

     total cpu time spent up to now is     4465.7 secs

     total energy              =    -993.25919261 Ry
     estimated scf accuracy    <       8.39463340 Ry

     total magnetization       =    -4.07 Bohr mag/cell
     absolute magnetization    =     4.17 Bohr mag/cell

     iteration #  2     ecut=   200.00 Ry     beta= 0.70
     Davidson diagonalization with overlap
     ethr =  1.00E-02,  avg # of iterations =  3.0

     total cpu time spent up to now is     8247.6 secs

     total energy              =    -996.02352299 Ry
     estimated scf accuracy    <      40.01713252 Ry

     total magnetization       =    -2.43 Bohr mag/cell
     absolute magnetization    =     2.58 Bohr mag/cell

     iteration #  3     ecut=   200.00 Ry     beta= 0.70
     Davidson diagonalization with overlap
     ethr =  1.00E-02,  avg # of iterations =  3.3

     total cpu time spent up to now is    12065.4 secs

     total energy              =    -996.93104020 Ry
     estimated scf accuracy    <      31.76169429 Ry

     total magnetization       =    -1.06 Bohr mag/cell
     absolute magnetization    =     1.06 Bohr mag/cell

     iteration #  4     ecut=   200.00 Ry     beta= 0.70
     Davidson diagonalization with overlap
     ethr =  1.00E-02,  avg # of iterations =  2.2

     total cpu time spent up to now is    15022.7 secs

     total energy              =    -997.91426996 Ry
     estimated scf accuracy    <      14.88480137 Ry

     total magnetization       =    -2.01 Bohr mag/cell
     absolute magnetization    =     2.04 Bohr mag/cell

     iteration #  5     ecut=   200.00 Ry     beta= 0.70
     Davidson diagonalization with overlap
     ethr =  1.00E-02,  avg # of iterations =  2.0

     total cpu time spent up to now is    17872.4 secs

     total energy              =    -998.43760807 Ry
     estimated scf accuracy    <       1.81213343 Ry

     total magnetization       =    -2.38 Bohr mag/cell
     absolute magnetization    =     2.57 Bohr mag/cell

     iteration #  6     ecut=   200.00 Ry     beta= 0.70
     Davidson diagonalization with overlap
     ethr =  3.02E-03,  avg # of iterations =  2.4

     total cpu time spent up to now is    20854.6 secs

     total energy              =    -997.68789872 Ry
     estimated scf accuracy    <      21.48962115 Ry

     total magnetization       =    -1.86 Bohr mag/cell
     absolute magnetization    =     1.98 Bohr mag/cell

     iteration #  7     ecut=   200.00 Ry     beta= 0.70
     Davidson diagonalization with overlap
     ethr =  3.02E-03,  avg # of iterations =  2.2

     total cpu time spent up to now is    23871.3 secs

     total energy              =    -998.83236956 Ry
     estimated scf accuracy    <       1.05767150 Ry

     total magnetization       =    -2.07 Bohr mag/cell
     absolute magnetization    =     2.29 Bohr mag/cell

     iteration #  8     ecut=   200.00 Ry     beta= 0.70
     Davidson diagonalization with overlap
     ethr =  1.76E-03,  avg # of iterations =  1.0

     total cpu time spent up to now is    26398.1 secs

     total energy              =    -998.85100593 Ry
     estimated scf accuracy    <       0.57929812 Ry

     total magnetization       =    -2.07 Bohr mag/cell
     absolute magnetization    =     2.46 Bohr mag/cell

     iteration #  9     ecut=   200.00 Ry     beta= 0.70
     Davidson diagonalization with overlap
     ethr =  9.65E-04,  avg # of iterations =  1.0

     total cpu time spent up to now is    28934.6 secs

     total energy              =    -998.87754174 Ry
     estimated scf accuracy    <       0.49229736 Ry

     total magnetization       =    -2.07 Bohr mag/cell
     absolute magnetization    =     2.68 Bohr mag/cell

     iteration # 10     ecut=   200.00 Ry     beta= 0.70
     Davidson diagonalization with overlap
     ethr =  8.20E-04,  avg # of iterations =  1.0

     total cpu time spent up to now is    31490.6 secs

     total energy              =    -998.84520080 Ry
     estimated scf accuracy    <       0.77153590 Ry

     total magnetization       =    -2.06 Bohr mag/cell
     absolute magnetization    =     3.42 Bohr mag/cell

     iteration # 11     ecut=   200.00 Ry     beta= 0.70
     Davidson diagonalization with overlap
     ethr =  8.20E-04,  avg # of iterations =  1.1

     total cpu time spent up to now is    34036.9 secs

     total energy              =    -998.85867140 Ry
     estimated scf accuracy    <       0.15776653 Ry

     total magnetization       =    -2.05 Bohr mag/cell
     absolute magnetization    =     4.28 Bohr mag/cell

     iteration # 12     ecut=   200.00 Ry     beta= 0.70
     Davidson diagonalization with overlap
     ethr =  2.63E-04,  avg # of iterations =  1.6

     total cpu time spent up to now is    36740.6 secs

     total energy              =    -998.86602634 Ry
     estimated scf accuracy    <       0.04531323 Ry

     total magnetization       =    -2.02 Bohr mag/cell
     absolute magnetization    =     5.08 Bohr mag/cell

     iteration # 13     ecut=   200.00 Ry     beta= 0.70
     Davidson diagonalization with overlap
     ethr =  7.55E-05,  avg # of iterations =  6.9

     total cpu time spent up to now is    41292.2 secs

     total energy              =    -998.88072192 Ry
     estimated scf accuracy    <       0.00681249 Ry

     total magnetization       =    -2.01 Bohr mag/cell
     absolute magnetization    =     5.51 Bohr mag/cell

     iteration # 14     ecut=   200.00 Ry     beta= 0.70
     Davidson diagonalization with overlap
     ethr =  1.14E-05,  avg # of iterations =  4.4

     total cpu time spent up to now is    45283.1 secs

     total energy              =    -998.88085774 Ry
     estimated scf accuracy    <       0.00603066 Ry

     total magnetization       =    -2.01 Bohr mag/cell
     absolute magnetization    =     5.66 Bohr mag/cell

     iteration # 15     ecut=   200.00 Ry     beta= 0.70
     Davidson diagonalization with overlap
     ethr =  1.01E-05,  avg # of iterations =  1.7

     total cpu time spent up to now is    48031.8 secs

     total energy              =    -998.87353266 Ry
     estimated scf accuracy    <       0.00862737 Ry

     total magnetization       =    -2.02 Bohr mag/cell
     absolute magnetization    =     5.33 Bohr mag/cell

     iteration # 16     ecut=   200.00 Ry     beta= 0.70
     Davidson diagonalization with overlap
     ethr =  1.01E-05,  avg # of iterations =  3.6

     negative rho (up, down):  1.644E-07 0.000E+00

     total cpu time spent up to now is    51811.6 secs

     total energy              =    -998.88103267 Ry
     estimated scf accuracy    <       0.00187546 Ry

     total magnetization       =    -2.00 Bohr mag/cell
     absolute magnetization    =     6.15 Bohr mag/cell

     iteration # 17     ecut=   200.00 Ry     beta= 0.70
     Davidson diagonalization with overlap
     ethr =  3.13E-06,  avg # of iterations =  5.8

     total cpu time spent up to now is    56336.0 secs

     total energy              =    -998.88222295 Ry
     estimated scf accuracy    <       0.00723634 Ry

     total magnetization       =    -1.99 Bohr mag/cell
     absolute magnetization    =     6.26 Bohr mag/cell

     iteration # 18     ecut=   200.00 Ry     beta= 0.70
     Davidson diagonalization with overlap
     ethr =  3.13E-06,  avg # of iterations =  2.0

     total cpu time spent up to now is    59360.2 secs

     total energy              =    -998.88236767 Ry
     estimated scf accuracy    <       0.00555157 Ry

     total magnetization       =    -2.00 Bohr mag/cell
     absolute magnetization    =     6.13 Bohr mag/cell

     iteration # 19     ecut=   200.00 Ry     beta= 0.70
     Davidson diagonalization with overlap
     ethr =  3.13E-06,  avg # of iterations =  2.7

     total cpu time spent up to now is    62742.1 secs

     total energy              =    -998.88304210 Ry
     estimated scf accuracy    <       0.00060103 Ry

     total magnetization       =    -2.01 Bohr mag/cell
     absolute magnetization    =     5.92 Bohr mag/cell

     iteration # 20     ecut=   200.00 Ry     beta= 0.70
     Davidson diagonalization with overlap
     ethr =  1.00E-06,  avg # of iterations =  6.0

     total cpu time spent up to now is    67320.7 secs

     total energy              =    -998.88322363 Ry
     estimated scf accuracy    <       0.00084502 Ry

     total magnetization       =    -2.01 Bohr mag/cell
     absolute magnetization    =     5.86 Bohr mag/cell

     iteration # 21     ecut=   200.00 Ry     beta= 0.70
     Davidson diagonalization with overlap
     ethr =  1.00E-06,  avg # of iterations =  2.0

     total cpu time spent up to now is    70219.4 secs

     total energy              =    -998.88328258 Ry
     estimated scf accuracy    <       0.00004826 Ry

     total magnetization       =    -2.01 Bohr mag/cell
     absolute magnetization    =     5.89 Bohr mag/cell

     iteration # 22     ecut=   200.00 Ry     beta= 0.70
     Davidson diagonalization with overlap
     ethr =  8.04E-08,  avg # of iterations =  7.2

     total cpu time spent up to now is    75748.3 secs

     total energy              =    -998.88331260 Ry
     estimated scf accuracy    <       0.00041979 Ry

     total magnetization       =    -2.01 Bohr mag/cell
     absolute magnetization    =     5.89 Bohr mag/cell

     iteration # 23     ecut=   200.00 Ry     beta= 0.70
     Davidson diagonalization with overlap
     ethr =  8.04E-08,  avg # of iterations =  5.7

     total cpu time spent up to now is    80248.7 secs

     total energy              =    -998.88334925 Ry
     estimated scf accuracy    <       0.00001082 Ry

     total magnetization       =    -2.01 Bohr mag/cell
     absolute magnetization    =     5.89 Bohr mag/cell

     iteration # 24     ecut=   200.00 Ry     beta= 0.70
     Davidson diagonalization with overlap
     ethr =  1.80E-08,  avg # of iterations =  2.1

     total cpu time spent up to now is    83358.6 secs

     total energy              =    -998.88335262 Ry
     estimated scf accuracy    <       0.00000294 Ry

     total magnetization       =    -2.01 Bohr mag/cell
     absolute magnetization    =     5.90 Bohr mag/cell

     iteration # 25     ecut=   200.00 Ry     beta= 0.70
     Davidson diagonalization with overlap
     ethr =  4.89E-09,  avg # of iterations =  5.6

     total cpu time spent up to now is    87264.2 secs

     total energy              =    -998.88335227 Ry
     estimated scf accuracy    <       0.00000701 Ry

     total magnetization       =    -2.01 Bohr mag/cell
     absolute magnetization    =     5.90 Bohr mag/cell

     iteration # 26     ecut=   200.00 Ry     beta= 0.70
     Davidson diagonalization with overlap
     ethr =  4.89E-09,  avg # of iterations =  1.1

     total cpu time spent up to now is    89673.1 secs

     total energy              =    -998.88335163 Ry
     estimated scf accuracy    <       0.00000331 Ry

     total magnetization       =    -2.01 Bohr mag/cell
     absolute magnetization    =     5.90 Bohr mag/cell

     iteration # 27     ecut=   200.00 Ry     beta= 0.70
     Davidson diagonalization with overlap
     ethr =  4.89E-09,  avg # of iterations =  5.8

     Magnetic moment per site:
     atom:    1    charge:   15.6637    magn:   -1.0145    constr:    0.0000
     atom:    2    charge:   13.3139    magn:   -2.7609    constr:    0.0000
     atom:    3    charge:   11.2751    magn:    0.0114    constr:    0.0000
     atom:    4    charge:   13.3702    magn:    1.7505    constr:    0.0000

     total cpu time spent up to now is    93318.3 secs

     End of self-consistent calculation

     Number of k-points >= 100: set verbosity='high' to print the bands.

     the Fermi energy is    17.3870 ev

!    total energy              =    -998.88335209 Ry
     estimated scf accuracy    <       0.00000003 Ry
     smearing contrib. (-TS)   =       0.00019184 Ry
     internal energy E=F+TS    =    -998.88354393 Ry

     The total energy is F=E-TS. E is the sum of the following terms:
     one-electron contribution =    -406.75178095 Ry
     hartree contribution      =     248.21496594 Ry
     xc contribution           =    -124.26001315 Ry
     ewald contribution        =    -604.58908968 Ry
     one-center paw contrib.   =    -111.49762609 Ry

     total magnetization       =    -2.01 Bohr mag/cell
     absolute magnetization    =     5.90 Bohr mag/cell

     convergence has been achieved in  27 iterations

     Forces acting on atoms (cartesian axes, Ry/au):

     atom    1 type  2   force =    -0.00000000    0.00000000   -0.00000000
     atom    2 type  1   force =    -0.00000000    0.00000000   -0.00000000
     atom    3 type  3   force =     0.00000000    0.00000000    0.00000000
     atom    4 type  1   force =    -0.00000000   -0.00000000   -0.00000000

     Total force =     0.000000     Total SCF correction =     0.000000


     Computing stress (Cartesian axis) and pressure

          total   stress  (Ry/bohr**3)                   (kbar)     P=        9.32
   0.00006336  -0.00000000   0.00000000            9.32       -0.00        0.00
  -0.00000000   0.00006336   0.00000000           -0.00        9.32        0.00
  -0.00000000   0.00000000   0.00006336           -0.00        0.00        9.32


     Writing output data file ./Mn2CoGa.save/

     init_run     :    208.63s CPU   1117.29s WALL (       1 calls)
     electrons    :  15373.57s CPU  92124.30s WALL (       1 calls)
     forces       :    122.89s CPU    573.25s WALL (       1 calls)
     stress       :     42.06s CPU    211.09s WALL (       1 calls)

     Called by init_run:
     wfcinit      :    194.35s CPU   1066.30s WALL (       1 calls)
     potinit      :      5.43s CPU     18.87s WALL (       1 calls)
     hinit0       :      6.05s CPU     21.51s WALL (       1 calls)

     Called by electrons:
     c_bands      :  13607.53s CPU  81503.40s WALL (      27 calls)
     sum_band     :   1609.43s CPU   9648.04s WALL (      27 calls)
     v_of_rho     :     54.64s CPU    313.41s WALL (      28 calls)
     newd         :     22.12s CPU    164.43s WALL (      28 calls)
     PAW_pot      :     32.92s CPU    198.39s WALL (      28 calls)
     mix_rho      :     32.06s CPU    192.51s WALL (      27 calls)

     Called by c_bands:
     init_us_2    :      6.56s CPU     10.36s WALL (    8208 calls)
     cegterg      :  13386.41s CPU  80192.24s WALL (    3888 calls)

     Called by *egterg:
     cdiaghg      :   3045.20s CPU  18245.13s WALL (   16221 calls)
     h_psi        :   5983.71s CPU  35775.82s WALL (   16365 calls)
     s_psi        :     10.23s CPU     17.94s WALL (   16365 calls)
     g_psi        :      1.15s CPU      4.29s WALL (   12333 calls)

     Called by h_psi:
     h_psi:calbec :   2052.81s CPU  12285.86s WALL (   16365 calls)
     vloc_psi     :   3916.91s CPU  23468.19s WALL (   16365 calls)
     add_vuspsi   :     13.10s CPU     19.60s WALL (   16365 calls)

     General routines
     calbec       :   2928.18s CPU  17341.12s WALL (   20973 calls)
     fft          :     73.23s CPU    420.96s WALL (     738 calls)
     ffts         :      9.95s CPU     61.95s WALL (     110 calls)
     fftw         :   4710.12s CPU  28368.65s WALL (  822894 calls)
     interpolate  :     10.11s CPU     61.98s WALL (      56 calls)

     Parallel routines
     fft_scatt_xy :     42.58s CPU     45.63s WALL (  823742 calls)
     fft_scatt_yz :   4512.09s CPU  28498.09s WALL (  823742 calls)

     PWSCF        :      4h57m CPU   1d 4h26m WALL


   This run was terminated on:   0: 7:28   1May2021            

=------------------------------------------------------------------------------=
   JOB DONE.
=------------------------------------------------------------------------------=
Note: The following floating-point exceptions are signalling: IEEE_DENORMAL
Note: The following floating-point exceptions are signalling: IEEE_DENORMAL
