 --invoking executable--
/opt/cfour/2.1/bin/xjoda


   *************************************************************************
         <<<     CCCCCC     CCCCCC   |||     CCCCCC     CCCCCC   >>>
       <<<      CCC        CCC       |||    CCC        CCC         >>>
      <<<      CCC        CCC        |||   CCC        CCC            >>>
    <<<        CCC        CCC        |||   CCC        CCC              >>>
      <<<      CCC        CCC        |||   CCC        CCC            >>>
       <<<      CCC        CCC       |||    CCC        CCC         >>>
         <<<     CCCCCC     CCCCCC   |||     CCCCCC     CCCCCC   >>>
   *************************************************************************

     ****************************************************************
     * CFOUR Coupled-Cluster techniques for Computational Chemistry *
     ****************************************************************


   Department of Chemistry                Institut fuer Physikalische Chemie
   University of Florida                  Universitaet Mainz
   Gainesville, FL 32611, USA             D-55099 Mainz, Germany

   Department of Chemistry                Fakultaet fuer Chemie und Biowiss.
   Johns Hopkins University               Karlsruher Institut fuer Technologie
   Baltimore, MD 21218, USA               D-76131 Karlsruhe, Germany

   Department of Chemistry                Department of Physical Chemistry
   Southern Methodist University          Eotvos Lorand University
   Dallas, TX 75275, USA                  H-1053 Budapest, Hungary


                       Version 2.1

                     node026                                           
                     Wed 05 Mar 2025 08:11:07 AM PST                   
                     integer*8 version is running

********************************************************************************
*                          Input from ZMAT file                                *
********************************************************************************
Optimization on FeCO4 (C2v), S0                                                 
Fe                                                                              
C 1 rFeCAx*                                                                     
C 1 rFeCEq* 2 aCAxCEq*                                                          
C 1 rFeCEq* 2 aCAxCEq* 3 dC                                                     
C 1 rFeCEq* 2 aCAxCEq* 3 dnC                                                    
O 1 rFeOAx* 3 aCAxCEq* 2 d0                                                     
O 1 rFeOEq* 2 aCAxOEq* 3 d0                                                     
O 1 rFeOEq* 2 aCAxOEq* 4 d0                                                     
O 1 rFeOEq* 2 aCAxOEq* 5 d0                                                     
                                                                                
rFeCAx  =    1.766187962670023                                                  
rFeCEq  =    1.848613849159921                                                  
rFeOAx  =    2.926573392448320                                                  
rFeOEq  =    3.005744198822011                                                  
aCAxCEq =   91.938235663845120                                                  
aCAxOEq =   91.040423263180415                                                  
d0      =    0.00000                                                            
dnC     = -120.00000                                                            
dC      =  120.0000                                                             
                                                                                
*ACES2(CALC = CCSD(T)                                                           
      BASIS = SPECIAL                                                           
FROZEN_CORE = ON                                                                
   SCF_CONV = 10                                                                
    CC_CONV = 8                                                                 
 LINEQ_CONV = 8                                                                 
   SCF_MAXCYC = 500                                                             
    CC_MAXCYC = 500                                                             
 LINEQ_MAXCYC = 500                                                             
       MEMORY = 32                                                              
     MEM_UNIT = GB)                                                             
                                                                                
Fe:cc-pVDZ                                                                      
C:cc-pVDZ                                                                       
C:cc-pVDZ                                                                       
C:cc-pVDZ                                                                       
C:cc-pVDZ                                                                       
O:cc-pVDZ                                                                       
O:cc-pVDZ                                                                       
O:cc-pVDZ                                                                       
O:cc-pVDZ                                                                       
                                                                                
********************************************************************************
    -------------------------------------------------------------------
                    CFOUR Control Parameters 
    -------------------------------------------------------------------
        External           Internal           Value            Units
          Name               Name
    -------------------------------------------------------------------
       ABCDTYPE             IABCDT         STANDARD    [  0]    ***   
       ANHARMONIC           IANHAR         OFF         [  0]    ***   
       ANH_ALGORIT          IANALG         STANDARD    [  0]    ***   
       ANH_DERIVAT          IANDER         SECOND      [  1]    ***   
       ANH_MODE             ANHMOD         VIBRATION   [  0]    ***   
       ANH_STEPSIZ          ICUBST             50000          x 10-6  
       ANH_SYMMETR          IANHSM         ABELIAN     [  0]    ***   
       AO_LADDERS           IAOLAD         SINGLEPASS  [  1]    ***   
       AV_SCF               IAVSCF         OFF         [  0]    ***   
       BASIS                IBASIS         SPECIAL     [  0]    ***   
       BOTHVECTORS          BOTHVC         OFF         [  0]    ***   
       BOX_POTENT           IPIAB          OFF         [  0]    ***   
       BREIT                IBREIT         OFF         [  0]    ***   
       BRUCK_CONV           IBRTOL          10D-  4             ***   
       BRUECKNER            IBRKNR         OFF         [  0]    ***   
       BUFFERSIZE           IBUFFS              4096            ***   
       CACHE_RECS           ICHREC             10               ***   
       CALCLEVEL            ICLLVL         CCSD(T)     [ 22]    ***   
       CCORBOPT             ICCORB         OFF         [  0]  x 0.01  
       CC_CONV              ICCCNV          10D-  8             ***   
       CC_EXPORDER          ICCEOR              5               ***   
       CC_EXTRAPOL          ICCEXT         DIIS        [  1]    ***   
       CC_GUESS             ICCGES         MP2         [  0]    ***   
       CC_MAXCYC            ICCCYC            500              cycles 
       CC_PROGRAM           ICCPRO         VCC         [  0]    ***   
       CHARGE               ICHRGE              0               ***   
       CHOLESKY             ICHOLE         OFF         [  0]    ***   
       CIS_CONV             ICISTL              5               ***   
       COMM_SIZE            IPSIZE            ***               ***   
       CONSTANT             ICONST         OLD         [  1]    ***   
       CONTINUUM            ICONTU         NONE        [  0]    ***   
       CONTRACTION          ICNTYP         GENERAL     [  1]    ***   
       COORDINATES          ICOORD         INTERNAL    [  0]    ***   
       CPHF_CONVER          ICPHFT          10D- 16             ***   
       CPHF_MAXCYC          ICPHFC             64              cycles 
       CUBIC                ICUBIC         OFF         [  0]    ***   
       CURVILINEAR          ICURVY         OFF         [  0]    ***   
       DBOC                 IDBOC          OFF         [  0]    ***   
       DCT                  IDCT           OFF         [  0]    ***   
       DERIV_LEV            IDRLVL         FIRST       [  1]    ***   
       DEVMEM_SIZE          IDVMEM         *********           MByte  
       DIAG_MRCC            IEOMST          10D-  0             ***   
       DIFF_TYPE            IDIFTY         RELAXED     [  0]    ***   
       DIRECT               IDIRCT         OFF         [  0]    ***   
       DROPMO               IDRPMO      NONE         
       ECP                  IECP           OFF         [  0]    ***   
       EIGENVECTOR          IVEC                1               ***   
       EL_ANHARM            IELANH         OFF         [  0]    ***   
       EOMFOLLOW            IEOMSR         ENERGY      [  0]    ***   
       EOMIP                IEOMIP         OFF         [  0]    ***   
       EOMLEVEL             HBARFM         SAME        [  0]    ***   
       EOM_MRCC             IMRCCE         NEW         [  1]    ***   
       EOM_NONIT            EOMNON         OFF         [  0]    ***   
       EOM_NSING            IEOMSI          10D-  0             ***   
       EOM_NSTATES          IMRCCD         DAVIDSON    [  0]    ***   
       EOM_NTRIP            IEOMTR          10D-  0             ***   
       EOM_ORDER            IEXORD         ENERGY      [  0]    ***   
       EOM_PROPSTA          IEOMST              0               ***   
       ESTATE_CONV          IEXTOL          10D-  5             ***   
       ESTATE_DIAG          IEXDIG         ITERATIVE   [  0]    ***   
       ESTATE_LOCK          IESLOC         ON          [  1]    ***   
       ESTATE_MAXC          IEXMXC             40               ***   
       ESTATE_PROP          IEXPRP         OFF         [  0]    ***   
       EVAL_HESS            IRECAL              0            # of cyc.
       EXCITATION           IEXCIT              0               ***   
       EXCITE               IEXCIT         NONE        [  0]    ***   
       EXTERN_POT           IEXPOT         OFF         [  0]    ***   
       FCGRADNEW            IFCGNW         ON          [  1]    ***   
       FC_FIELD             IFINFC              0             x 10-6  
       FD_CALTYPE           IFDCAL         GRADONLY    [  0]    ***   
       FD_PROJECT           IFDPRJ         OFF         [  1]    ***   
       FD_STEPSIZE          IDISFD              0            10-4 bohr
       FD_USEGROUP          IFDGRP         FULL        [  0]    ***   
       FILE_RECSIZ          IFLREC              4096           words  
       FINITE_PERT          IFIPER              0             x 10-6  
       FIXGEOM              IFIXGM         OFF         [  0]    ***   
       FOCK                 IFOCK          AO          [  1]    ***   
       FREQ_ALGORI          IVIALG         STANDARD    [  0]    ***   
       FROZEN_CORE          IFROCO         ON          [  1]    ***   
       GAMMA_ABCD           IGABCD         STORE       [  0]    ***   
       GAMMA_ABCI           IGABCI         STORE       [  0]    ***   
       GENBAS_1             IGNBS1              0               ***   
       GENBAS_2             IGNBS2              0               ***   
       GENBAS_3             IGNBS3              0               ***   
       GENBAS_4             IGNBS4              0               ***   
       GEO_CONV             ICONTL              5              H/bohr 
       GEO_MAXCYC           IOPTCY             50               ***   
       GEO_MAXSTEP          IMXSTP            300            millibohr
       GEO_METHOD           INR            NR          [  0]    ***   
       GIAO                 IGIAO          OFF         [  1]    ***   
       GIMIC                IGIMIC         OFF         [  0]    ***   
       GRID                 IGRID          OFF         [  0]    ***   
       GRID_ALGO            IGALGO         SERIAL      [  0]    ***   
       GUESS                IGUESS         MOREAD      [  0]    ***   
       HBAR                 IHBAR          OFF         [  0]    ***   
       HESS_TYPE            IHESTP         SCF         [  0]    ***   
       HF2_FILE             IHF2Fl         USE         [  1]    ***   
       HFSTABILITY          ISTABL         OFF         [  0]    ***   
       INCORE               INCORE         OFF         [  0]    ***   
       INPUT_MRCC           IMRCC          ON          [  1]    ***   
       INTEGRALS            INTTYP         VMOL        [  1]    ***   
       JODA_PRINT           IJPRNT              0               ***   
       KEYWORD_OUT          IDMPKW         NO          [  0]    ***   
       LINDEP_TOL           ILINDP              8               ***   
       LINEQ_CONV           IZTACN          10D-  8           cycles  
       LINEQ_EXPOR          ILMAXD              5               ***   
       LINEQ_MAXCY          ILMAXC            500               ***   
       LINEQ_TYPE           ILTYPE         DIIS        [  1]    ***   
       LOCK_ORBOCC          ILOCOC         OFF         [  0]    ***   
       MEMORY_SIZE          IMEMSZ         *********           words  
       MEM_UNIT             IMEMU          GB          [  3]    ***   
       MRCC                 IMRCCC         OFF         [  0]    ***   
       MULTIPLICTY          IMULTP              1               ***   
       NACOUPLING           IVCOUP         OFF         [  0]    ***   
       NEGEVAL              IDIE           ABORT       [  0]    ***   
       NEWNORM              INEWNO         OFF         [  0]    ***   
       NON-HF               INONHF         OFF         [  0]    ***   
       NTOP_TAMP            ITOPT2             15               ***   
       NUC_MODEL            INUCMO         POINT       [  0]    ***   
       OCCUPATION           IOCCU   ESTIMATED BY SCF 
       OPEN-SHELL           IOPEN          SPIN-ORBITAL[  0]    ***   
       OPTVIB               IOPTVB         OFF         [  0]    ***   
       ORBITALS             IORBTP         STANDARD    [  0]    ***   
       PARALLEL             IPARAL         ON          [  1]    ***   
       PARA_INT             IPINTS         ON          [  1]    ***   
       PARA_PRINT           IPPRIN              0               ***   
       PERT_ORB             IPTORB         CANONICAL   [  1]    ***   
       POINTS               IGRDFD              0               ***   
       PRINT                IPRNT               0               ***   
       PROPS                IPROPS         OFF         [  0]    ***   
       PROP_INTEGR          IINTYP         INTERNAL    [  0]    ***   
       PSI                  IPSI           OFF         [  0]    ***   
       QC_ALG               IQCALG         FLM         [  0]    ***   
       QC_LINALG            IQCLIN         TRIDIAG     [  2]    ***   
       QC_MAXCYC            IQCMAX          10D-100           cycles  
       QC_MAXSCFCY          IQCMSC          10D- 15           cycles  
       QC_RTRUST            IQCRTR          10D-  0           x 10-3  
       QC_SKIPSCF           IQCSKI         OFF         [  0]    ***   
       QC_START             IQCSTA          10D-  1             ***   
       QRHFGUESS            IQGUES         OFF         [  0]    ***   
       QUARTIC              IQUART         OFF         [  0]    ***   
       RAMAN_INT            IRAMIN         OFF         [  0]    ***   
       RAMAN_ORB            IRAMRE         UNRELAXED   [  0]    ***   
       RDO                  IRDOFM         ON          [  1]    ***   
       REDUCE_REPR          REDREP         Ir          [  0]    ***   
       REFERENCE            IREFNC         RHF         [  0]    ***   
       RELATIVIST           IRELAT         OFF         [  0]    ***   
       RELAX_DENS           IRDENS         ON          [  1]    ***   
       RESET_FLAGS          IRESET         OFF         [  0]    ***   
       RESTART_CC           ICCRES         OFF         [  0]    ***   
       ROT_EVEC             ROTVEC              0               ***   
       SAVE_INTS            ISVINT         OFF         [  0]    ***   
       SCALE_ON             ISTCRT              0               ***   
       SCF_CONV             ISCFCV          10D- 10             ***   
       SCF_DAMPING          IDAMP               0             x 10-3  
       SCF_EXPORDE          IRPPOR              6               ***   
       SCF_EXPSTAR          IRPPLS              8               ***   
       SCF_EXTRAPO          IRPP           ON          [  1]    ***   
       SCF_MAXCYC           ISCFCY            500              cycles 
       SCF_NOSTOP           ISCFST         OFF         [  0]    ***   
       SCF_PRINT            ISCFPR              0               ***   
       SCF_PROG             ISCFPR         SCF         [  0]    ***   
       SD_FIELD             IFINSD              0             x 10-6  
       SOPERT               IPERSO         OFF         [  0]    ***   
       SPHERICAL            IDFGHI         ON          [  1]    ***   
       SPINORBIT            ISOCAL         OFF         [  0]    ***   
       SPINROTATIO          ISRCON         OFF         [  0]    ***   
       SPIN_FLIP            ISPFLP         OFF         [  0]    ***   
       SPIN_ORBIT           ISPORB         OFF         [  0]    ***   
       SPIN_SCAL            ISCSMP         OFF         [  0]    ***   
       STEEPSCALE           ISTPSC              1000          x 10-3  
       SUBGROUP             ISUBGP         DEFAULT     [  0]    ***   
       SUBGRPAXIS           ISBXYZ         X           [  0]    ***   
       SYMMETRY             ISYM           ON          [  0]    ***   
       SYM_CHECK            ISYMCK         OVERRIDE    [  1]    ***   
       T3_EXTRAPOL          IT3EXT         OFF         [  0]    ***   
       T4_EXTRAPOL          IT4EXP         OFF         [  0]    ***   
       TAMP_SUM             IEVERY              5               ***   
       TESTSUITE            ITESTS         OFF         [  0]    ***   
       THERMOCH             ITHERM         OFF         [  0]    ***   
       TOL_CHOLESK          ITOLCH          10D-  4             ***   
       TRANGRAD             IRESRM         OFF         [  0]    ***   
       TRANS_INV            ITRAIN         USE         [  0]    ***   
       TREAT_PERT           ITREAT         SIMULTANEOUS[  0]    ***   
       TRIP_ALGORI          ITRALG         NORMAL      [  0]    ***   
       UIJ_THRESHO          IUIJTH              1               ***   
       UNITS                IUNITS         ANGSTROM    [  0]    ***   
       UNOS                 IUNOS          OFF         [  0]    ***   
       UPDATE_HESS          IHUPDT         ON          [  1]    ***   
       VIBPHASE             ISETPH         STANDARD    [  0]    ***   
       VIBRATION            IVIB           NO          [  0]    ***   
       VIB_ALGORIT          IGEALG         STANDARD    [  0]    ***   
       VNATORB              IVNORB         OFF         [  0]    ***   
       VTRAN                IVTRAN         FULL/PARTIAL[  0]    ***   
       XFIELD               IXEFLD              0             x 10-6  
       XFORM_TOL            IXFTOL          10D- 11             ***   
       YFIELD               IYEFLD              0             x 10-6  
       ZFIELD               IZEFLD              0             x 10-6  
       ZSCALE_EXP           IZEXPS         OFF         [  0]    ***   
    -------------------------------------------------------------------
   9 entries found in Z-matrix 
   Job Title : Optimization on FeCO4 (C2v), S0                                                 
   There are  9 unique internal coordinates.
   Of these,  6 will be optimized.
   User supplied Z-matrix: 
--------------------------------------------------------------------------------
       SYMBOL    BOND      LENGTH    ANGLE     ANGLE     DIHED     ANGLE
                  TO      (ANGST)    WRT      (DEG)      WRT      (DEG)
--------------------------------------------------------------------------------
        Fe   
        C          1         rFeCA
        C          1         rFeCE      2        aCAxC
        C          1         rFeCE      2        aCAxC      3        dC   
        C          1         rFeCE      2        aCAxC      3        dnC  
        O          1         rFeOA      3        aCAxC      2        d0   
        O          1         rFeOE      2        aCAxO      3        d0   
        O          1         rFeOE      2        aCAxO      4        d0   
        O          1         rFeOE      2        aCAxO      5        d0   
                  *Initial values for internal coordinates* 
                      Name             Value
                        rFeCA           1.7661879627
                        rFeCE           1.8486138492
                        aCAxC          91.9382356638
                        dC            120.0000000000
                        dnC          -120.0000000000
                        rFeOA           2.9265733924
                        d0              0.0000000000
                        rFeOE           3.0057441988
                        aCAxO          91.0404232632
--------------------------------------------------------------------------------
  filter applied 
  filter applied 
   Rotational constants (in cm-1): 
          0.0303053177             0.0392858263             0.0392858263
   Rotational constants (in MHz): 
        908.5306970135          1177.7596080323          1177.7596080323
********************************************************************************
   The full molecular point group is C3v .
   The largest Abelian subgroup of the full molecular point group is C s .
   The computational point group is C s .
********************************************************************************
--------------------------------------------------------------------------------
   Analysis of internal coordinates specified by Z-matrix 
--------------------------------------------------------------------------------
   *The nuclear repulsion energy is  578.548046005878746 a.u.
  *ERROR* Parameters 11 and  3 are not equivalent [both called aCAxC].
  *ERROR* Parameters 11 and  5 are not equivalent [both called aCAxC].
  *ERROR* Parameters 11 and  8 are not equivalent [both called aCAxC].
  *WARNING* Parameter aCAxC[ 11] cannot have a nonzero derivative,
    but is being optimized.  Reconstruction of Z-matrix recommended.
   *There are   6 degrees of freedom within the tot. symm. molecular subspace.
   *Z-matrix requests optimization of   6 coordinates.
   *The following   6 parameters can have non-zero 
    derivatives within the totally symmetric subspace:
             rFeCE[ 2]  rFeCA[ 1]  aCAxO[14]  aCAxC[ 8]  rFeOE[19]  rFeOA[10]
   *The following   6 parameters are to be optimized:
             rFeCA[ 1]  rFeCE[ 2]  aCAxC[ 3]  rFeOA[10]  rFeOE[13]  aCAxO[14]

--------------------------------------------------------------------------------


 ----------------------------------------------------------------
         Coordinates used in calculation (QCOMP) 
 ----------------------------------------------------------------
 Z-matrix   Atomic            Coordinates (in bohr)
  Symbol    Number           X              Y              Z
 ----------------------------------------------------------------
     FE       26        -0.71052471    -0.00000000     0.00000000
     C         6         2.62708753    -0.00000000     0.00000000
     C         6        -0.82867812     1.74568797    -3.02362026
     C         6        -0.82867812    -3.49137594    -0.00000000
     C         6        -0.82867812     1.74568797     3.02362026
     O         8         4.81989865    -0.00000000     0.00000000
     O         8        -0.81366172     2.83954904    -4.91824321
     O         8        -0.81366172    -5.67909808     0.00000000
     O         8        -0.81366172     2.83954904     4.91824321
 ----------------------------------------------------------------

   Interatomic distance matrix (Angstroms) 

                 FE            C             C             C             C    
                [ 1]        [ 2]        [ 3]        [ 4]        [ 5]
  FE   [ 1]     0.00000
  C    [ 2]     1.76619     0.00000
  C    [ 3]     1.84861     2.59955     0.00000
  C    [ 4]     1.84861     2.59955     3.20006     0.00000
  C    [ 5]     1.84861     2.59955     3.20006     3.20006     0.00000
  O    [ 6]     2.92657     1.16039     3.51400     3.51400     3.51400
  O    [ 7]     3.00574     3.51379     1.15772     4.24234     4.24234
  O    [ 8]     3.00574     3.51379     4.24234     1.15772     4.24234
  O    [ 9]     3.00574     3.51379     4.24234     4.24234     1.15772

                 O             O             O             O    
                [ 6]        [ 7]        [ 8]        [ 9]
  O    [ 6]     0.00000
  O    [ 7]     4.23306     0.00000
  O    [ 8]     4.23306     5.20524     0.00000
  O    [ 9]     4.23306     5.20524     5.20524     0.00000
 rotcon2
   Rotational constants (in cm-1): 
          0.0303053177             0.0392858263             0.0392858263
   Rotational constants (in MHz): 
        908.5306970135          1177.7596080323          1177.7596080323
  ECPDATA file not present.   Using default ECPDATA. 
  There are  17 frozen-core orbitals.
  There are  155 basis functions.
 @CHECKOUT-I, Total execution time (CPU/WALL):        1.41/       1.52 seconds.
--executable xjoda finished with status     0 in        1.56 seconds (walltime).
 --invoking executable--
/opt/cfour/2.1/bin/xvmol
 SERIAL VERSION OF MOLECULE STARTED
********************************************************************************
                    INPUT FROM MOL FILE
********************************************************************************
INTGRL        1    0    1    0    0    0    0    0    0                         
         *** CFOUR Program System (Release V0.1) ***                            
Optimization on FeCO4 (C2v), S0                                                 
    7    1 Z          0.10E-08              0    0                              
   9999.00      3.00                                                            
         26.00000000    1    4    1    1    1    1                              
FE#1  -0.710524706982202  -0.000000000000000   0.000000000000000                
   20    6                                                                      
   4316265.0000000000        8.0488029999999998E-006  -4.1559539999999997E-006  
   646342.40000000002        6.2583059999999998E-005  -3.2314010000000003E-005  
   147089.70000000001        3.2902389999999999E-004  -1.6995250000000000E-004  
   41661.519999999997        1.3873550000000001E-003  -7.1713690000000004E-004  
   13590.770000000000        5.0232560000000002E-003  -2.6036250000000000E-003  
   4905.7500000000000        1.6101399999999998E-002  -8.3991090000000001E-003  
   1912.7460000000001        4.5900339999999998E-002  -2.4341089999999999E-002  
   792.60429999999997       0.11361540000000001       -6.2519480000000002E-002  
   344.80650000000003       0.22838690000000000      -0.13659289999999999       
   155.89990000000000       0.32211590000000001      -0.23127070000000000       
   72.230909999999994       0.23836610000000000      -0.23837340000000001       
   32.725059999999999        7.4046669999999995E-002   3.1238370000000001E-002  
   15.667619999999999        9.2141970000000004E-002  0.50868179999999996      -
   7.5034830000000001        9.3397900000000006E-002  0.49876949999999998      -
   3.3122229999999999        1.5739650000000001E-002   9.0335520000000002E-002  
   1.5584709999999999       -4.1866819999999998E-004  -6.0053370000000003E-003  
  0.68391400000000002        5.3763179999999999E-005   2.3124539999999999E-004  
  0.14675700000000000       -3.8166539999999997E-005  -5.6436799999999999E-004  
   7.0583000000000007E-002   4.3196030000000000E-005   4.9922599999999997E-004  
   3.1448999999999998E-002  -3.4010190000000000E-006  -1.0152930000000000E-004  
   16    5                                                                      
   17745.689999999999        4.1000000000000000E-005  -1.5000000000000000E-005  
   4200.7209999999995        3.6900000000000002E-004  -1.2999999999999999E-004  
   1364.4290000000001        2.1289999999999998E-003  -7.5100000000000004E-004  
   522.08060000000000        9.3690000000000006E-003  -3.3289999999999999E-003  
   221.45949999999999        3.3097000000000001E-002  -1.1912000000000001E-002  
   100.90960000000000        9.4431000000000001E-002  -3.4932999999999999E-002  
   48.401150000000001       0.20807700000000001       -7.9989000000000005E-002  
   23.985360000000000       0.33233299999999999      -0.13463600000000001       
   12.182499999999999       0.33298699999999998      -0.13859800000000000       
   6.2422979999999999       0.15684300000000001        3.0277999999999999E-002  
   3.1109439999999999        2.1548999999999999E-002  0.33321600000000001      -
   1.5099579999999999       -2.0950000000000001E-003  0.45615299999999998      -
  0.71084499999999995       -1.7390000000000001E-003  0.28505100000000000      -
  0.27318999999999999       -2.9999999999999997E-004   4.6143999999999998E-002  
  0.10423300000000001        2.9000000000000000E-005  -3.2490000000000002E-003  
   3.8290999999999999E-002  -1.1000000000000000E-005   1.3569999999999999E-003  
    8    3                                                                      
   113.34399999999999        3.5300000000000002E-003  -3.8899999999999998E-003  
   33.641399999999997        2.5784000000000001E-002  -2.8441999999999999E-002  
   12.331000000000000        9.9118999999999999E-002 -0.11242900000000000       
   4.9947800000000004       0.23907300000000001      -0.27425699999999997       
   2.0728000000000000       0.35719899999999999      -0.31554599999999999       
  0.83075299999999996       0.36218800000000001        5.7109000000000000E-002  
  0.30917800000000001       0.23646100000000000       0.56360399999999999       
  0.10013000000000000        6.0117999999999998E-002  0.38463700000000001       
    2    1                                                                      
   3.2242999999999999       0.42224899999999999                                 
  0.77580000000000005       0.77146800000000004                                 
          6.00000000    1    3    1    1    1                                   
C #2   2.627087526559316  -0.000000000000000   0.000000000000000                
    9    3                                                                      
   6665.0000000000000        6.9200000000000002E-004  -1.4600000000000000E-004  
   1000.0000000000000        5.3290000000000004E-003  -1.1540000000000001E-003  
   228.00000000000000        2.7077000000000000E-002  -5.7250000000000001E-003  
   64.709999999999994       0.10171800000000000       -2.3311999999999999E-002  
   21.059999999999999       0.27473999999999998       -6.3954999999999998E-002  
   7.4950000000000001       0.44856400000000002      -0.14998100000000000       
   2.7970000000000002       0.28507399999999999      -0.12726199999999999       
  0.52149999999999996        1.5204000000000001E-002  0.54452900000000004       
  0.15959999999999999       -3.1909999999999998E-003  0.58049600000000001       
    4    2                                                                      
   9.4390000000000001        3.8108999999999997E-002   0.0000000000000000       
   2.0019999999999998       0.20948000000000000        0.0000000000000000       
  0.54559999999999997       0.50855700000000004        0.0000000000000000       
  0.15170000000000000       0.46884199999999998        1.0000000000000000       
    1    1                                                                      
  0.55000000000000004        1.0000000000000000                                 
          6.00000000    1    3    1    1    1                                   
C #3  -0.828678120359226   1.745687972349393  -3.023620262271042                
    9    3                                                                      
   6665.0000000000000        6.9200000000000002E-004  -1.4600000000000000E-004  
   1000.0000000000000        5.3290000000000004E-003  -1.1540000000000001E-003  
   228.00000000000000        2.7077000000000000E-002  -5.7250000000000001E-003  
   64.709999999999994       0.10171800000000000       -2.3311999999999999E-002  
   21.059999999999999       0.27473999999999998       -6.3954999999999998E-002  
   7.4950000000000001       0.44856400000000002      -0.14998100000000000       
   2.7970000000000002       0.28507399999999999      -0.12726199999999999       
  0.52149999999999996        1.5204000000000001E-002  0.54452900000000004       
  0.15959999999999999       -3.1909999999999998E-003  0.58049600000000001       
    4    2                                                                      
   9.4390000000000001        3.8108999999999997E-002   0.0000000000000000       
   2.0019999999999998       0.20948000000000000        0.0000000000000000       
  0.54559999999999997       0.50855700000000004        0.0000000000000000       
  0.15170000000000000       0.46884199999999998        1.0000000000000000       
    1    1                                                                      
  0.55000000000000004        1.0000000000000000                                 
          6.00000000    1    3    1    1    1                                   
C #4  -0.828678120359226  -3.491375944698786  -0.000000000000000                
    9    3                                                                      
   6665.0000000000000        6.9200000000000002E-004  -1.4600000000000000E-004  
   1000.0000000000000        5.3290000000000004E-003  -1.1540000000000001E-003  
   228.00000000000000        2.7077000000000000E-002  -5.7250000000000001E-003  
   64.709999999999994       0.10171800000000000       -2.3311999999999999E-002  
   21.059999999999999       0.27473999999999998       -6.3954999999999998E-002  
   7.4950000000000001       0.44856400000000002      -0.14998100000000000       
   2.7970000000000002       0.28507399999999999      -0.12726199999999999       
  0.52149999999999996        1.5204000000000001E-002  0.54452900000000004       
  0.15959999999999999       -3.1909999999999998E-003  0.58049600000000001       
    4    2                                                                      
   9.4390000000000001        3.8108999999999997E-002   0.0000000000000000       
   2.0019999999999998       0.20948000000000000        0.0000000000000000       
  0.54559999999999997       0.50855700000000004        0.0000000000000000       
  0.15170000000000000       0.46884199999999998        1.0000000000000000       
    1    1                                                                      
  0.55000000000000004        1.0000000000000000                                 
          8.00000000    1    3    1    1    1                                   
O #5   4.819898647407699  -0.000000000000000   0.000000000000000                
    9    3                                                                      
   11720.000000000000        7.1000000000000002E-004  -1.6000000000000001E-004  
   1759.0000000000000        5.4700000000000000E-003  -1.2630000000000000E-003  
   400.80000000000001        2.7837000000000001E-002  -6.2670000000000000E-003  
   113.70000000000000       0.10480000000000000       -2.5715999999999999E-002  
   37.030000000000001       0.28306199999999998       -7.0924000000000001E-002  
   13.270000000000000       0.44871899999999998      -0.16541100000000000       
   5.0250000000000004       0.27095200000000003      -0.11695500000000000       
   1.0129999999999999        1.5458000000000000E-002  0.55736799999999997       
  0.30230000000000001       -2.5850000000000001E-003  0.57275900000000002       
    4    2                                                                      
   17.699999999999999        4.3018000000000001E-002   0.0000000000000000       
   3.8540000000000001       0.22891300000000001        0.0000000000000000       
   1.0460000000000000       0.50872799999999996        0.0000000000000000       
  0.27529999999999999       0.46053100000000002        1.0000000000000000       
    1    1                                                                      
   1.1850000000000001        1.0000000000000000                                 
          8.00000000    1    3    1    1    1                                   
O #6  -0.813661715265613   2.839549039187778  -4.918243206456620                
    9    3                                                                      
   11720.000000000000        7.1000000000000002E-004  -1.6000000000000001E-004  
   1759.0000000000000        5.4700000000000000E-003  -1.2630000000000000E-003  
   400.80000000000001        2.7837000000000001E-002  -6.2670000000000000E-003  
   113.70000000000000       0.10480000000000000       -2.5715999999999999E-002  
   37.030000000000001       0.28306199999999998       -7.0924000000000001E-002  
   13.270000000000000       0.44871899999999998      -0.16541100000000000       
   5.0250000000000004       0.27095200000000003      -0.11695500000000000       
   1.0129999999999999        1.5458000000000000E-002  0.55736799999999997       
  0.30230000000000001       -2.5850000000000001E-003  0.57275900000000002       
    4    2                                                                      
   17.699999999999999        4.3018000000000001E-002   0.0000000000000000       
   3.8540000000000001       0.22891300000000001        0.0000000000000000       
   1.0460000000000000       0.50872799999999996        0.0000000000000000       
  0.27529999999999999       0.46053100000000002        1.0000000000000000       

Running with 32 threads/proc

    1    1                                                                      
   1.1850000000000001        1.0000000000000000                                 
          8.00000000    1    3    1    1    1                                   
O #7  -0.813661715265613  -5.679098078375556   0.000000000000000                
    9    3                                                                      
   11720.000000000000        7.1000000000000002E-004  -1.6000000000000001E-004  
   1759.0000000000000        5.4700000000000000E-003  -1.2630000000000000E-003  
   400.80000000000001        2.7837000000000001E-002  -6.2670000000000000E-003  
   113.70000000000000       0.10480000000000000       -2.5715999999999999E-002  
   37.030000000000001       0.28306199999999998       -7.0924000000000001E-002  
   13.270000000000000       0.44871899999999998      -0.16541100000000000       
   5.0250000000000004       0.27095200000000003      -0.11695500000000000       
   1.0129999999999999        1.5458000000000000E-002  0.55736799999999997       
  0.30230000000000001       -2.5850000000000001E-003  0.57275900000000002       
    4    2                                                                      
   17.699999999999999        4.3018000000000001E-002   0.0000000000000000       
   3.8540000000000001       0.22891300000000001        0.0000000000000000       
   1.0460000000000000       0.50872799999999996        0.0000000000000000       
  0.27529999999999999       0.46053100000000002        1.0000000000000000       
    1    1                                                                      
   1.1850000000000001        1.0000000000000000                                 
FINISH                                                                          

********************************************************************************
 ONE- AND TWO-ELECTRON INTEGRALS OVER SYMMETRY-ADAPTED AOS ARE CALCULATED.

  SPHERICAL HARMONICS ARE USED.
  
  INTEGRALS LESS THAN  0.10E-13 ARE NEGLECTED.

  NUCLEAR REPULSION ENERGY :  578.5480460059 A.U.
  @MOLECU-I, ONE ELECTRON INTEGRALS (CPU/WALL):        0.82/       0.07 SECONDS.
  @TWOEL-I,   11919784 INTEGRALS OF SYMMETRY TYPE  I I I I
  @TWOEL-I,   14782837 INTEGRALS OF SYMMETRY TYPE  I J I J
  @TWOEL-I,    7647266 INTEGRALS OF SYMMETRY TYPE  I I J J
  @TWOEL-I, TOTAL NUMBER OF 2-E INTEGRALS   34349887.
  @MOLECU-I, TWO ELECTRON INTEGRALS (CPU/WALL):       52.58/      16.24 SECONDS.
 @CHECKOUT-I, Total execution time (CPU/WALL):       53.47/      16.32 seconds.
--executable xvmol finished with status     0 in       16.35 seconds (walltime).
 --invoking executable--
/opt/cfour/2.1/bin/xvmol2ja
 @GETMEM-I,  Allocated   30517 MB of main memory.
 @CHECKOUT-I, Total execution time (CPU/WALL):        0.15/       0.02 seconds.
--executable xvmol2ja finished with status     0 in        0.04 seconds (walltime).
 --invoking executable--
/opt/cfour/2.1/bin/xvscf
  There are  155 functions in the AO basis.

  There are 2 irreducible representations.

       Irrep        # of functions
         1                 97
         2                 58


  Parameters for SCF calculation: 
        SCF reference function:  RHF  
  Maximum number of iterations:  500
     Full symmetry point group: C3v 
     Computational point group: C s 
        Initial density matrix: MOREAD                 
     SCF convergence tolerance: 10**(-10)
  DIIS convergence acceleration:  ON
          Latest start for DIIS:   8
                     DIIS order:   6

  Memory information:    1051790 words required.
  Fock matrices are constructed from AO integral file.
 @GETMEM-I,  Allocated       8 MB of main memory.
  Initialization and symmetry analysis required      0.013 seconds.

  @INITGES-I, Occupancies from core Hamiltonian:

          Alpha population by irrep:  29   12
           Beta population by irrep:  29   12


 total no. of electrons in initial guess :   0.0000000000000000     
  --------------------------------------------------------------------
  Iteration         Total Energy            Largest Density Difference
  --------------------------------------------------------------------
       0           578.548046005878973              0.0000000000D+00
   current occupation vector 
    29 12
    29 12
       1         -1330.365657322421612              0.6677263421D+03
   current occupation vector 
    29 12
    29 12
       2         -1503.525208606458364              0.6531348700D+03
   current occupation vector 
    28 13
    28 13
       3         -1338.680040249877948              0.5107668365D+03
   current occupation vector 
    28 13
    28 13
       4         -1490.895850250526109              0.5108395390D+03
   current occupation vector 
    29 12
    29 12
       5         -1338.416617440082518              0.5169641272D+03
   current occupation vector 
    28 13
    28 13
       6         -1491.144156106062837              0.5173310872D+03
   current occupation vector 
    29 12
    29 12
       7         -1338.413533834261671              0.5168912937D+03
   current occupation vector 
    28 13
    28 13
       8         -1491.156698335752935              0.5169027801D+03
   current occupation vector 
    29 12
    29 12
       9         -1570.332915758219315              0.1902603640D+03
   current occupation vector 
    28 13
    28 13
      10         -1607.551896084281452              0.1648127765D+03
   current occupation vector 
    29 12
    29 12
      11         -1703.627262562992655              0.5290089368D+02
   current occupation vector 
    28 13
    28 13
      12         -1696.384727692992328              0.4758942874D+01
   current occupation vector 
    28 13
    28 13
      13         -1707.961174363686496              0.6022255994D+01
   current occupation vector 
    28 13
    28 13
      14         -1703.615071689960587              0.4862085698D+01
   current occupation vector 
    28 13
    28 13
      15         -1704.743763462300649              0.2623341963D+01
   current occupation vector 
    29 12
    29 12
      16         -1711.335636599963891              0.3094291323D+01
   current occupation vector 
    28 13
    28 13
      17         -1712.416318643610339              0.6587862080D+00
   current occupation vector 
    28 13
    28 13
      18         -1713.008629957015273              0.6310591648D+00
   current occupation vector 
    28 13
    28 13
      19         -1713.172167948587685              0.1491714008D+01
   current occupation vector 
    28 13
    28 13
      20         -1713.215460940737103              0.4460823033D+00
   current occupation vector 
    28 13
    28 13
      21         -1713.220145872720423              0.7197793144D-01
   current occupation vector 
    28 13
    28 13
      22         -1713.222061908943033              0.6971080409D-01
   current occupation vector 
    28 13
    28 13
      23         -1713.222954705905977              0.8874494925D-01
   current occupation vector 
    28 13
    28 13
      24         -1713.223615156270625              0.6168981175D-01
   current occupation vector 
    28 13
    28 13
      25         -1713.224071002246092              0.5323186365D-01
   current occupation vector 
    28 13
    28 13
      26         -1713.224623490524664              0.7086962569D-01
   current occupation vector 
    28 13
    28 13
      27         -1713.224815605251024              0.4286909061D-01
   current occupation vector 
    28 13
    28 13
      28         -1713.224935961120991              0.2400495778D-01
   current occupation vector 
    28 13
    28 13
      29         -1713.224996916665077              0.1733053829D-01
   current occupation vector 
    28 13
    28 13
      30         -1713.225029772598191              0.1221632266D-01
   current occupation vector 
    28 13
    28 13
      31         -1713.225058220429219              0.1824062724D-01
   current occupation vector 
    28 13
    28 13
      32         -1713.225065342992366              0.9612240578D-02
   current occupation vector 
    28 13
    28 13
      33         -1713.225066364656413              0.1901331580D-02
   current occupation vector 
    28 13
    28 13
      34         -1713.225067035907614              0.1656283850D-02
   current occupation vector 
    28 13
    28 13
      35         -1713.225067124451471              0.3305844769D-03
   current occupation vector 
    28 13
    28 13
      36         -1713.225067747687717              0.1687060667D-02
   current occupation vector 
    28 13
    28 13
      37         -1713.225068097758594              0.2027153822D-02
   current occupation vector 
    28 13
    28 13
      38         -1713.225068287585600              0.1239672307D-02
   current occupation vector 
    28 13
    28 13
      39         -1713.225068361871763              0.4112273572D-03
   current occupation vector 
    28 13
    28 13
      40         -1713.225068454827579              0.6528194857D-03
   current occupation vector 
    28 13
    28 13
      41         -1713.225068503411421              0.5838742556D-03
   current occupation vector 
    28 13
    28 13
      42         -1713.225068522031506              0.5566404209D-03
   current occupation vector 
    28 13
    28 13
      43         -1713.225068537343304              0.4586870904D-03
   current occupation vector 
    28 13
    28 13
      44         -1713.225068550993910              0.8371521160D-03
   current occupation vector 
    28 13
    28 13
      45         -1713.225068562967863              0.8776735949D-03
   current occupation vector 
    28 13
    28 13
      46         -1713.225068566873688              0.4533287502D-03
   current occupation vector 
    28 13
    28 13
      47         -1713.225068570619896              0.4228597668D-03
   current occupation vector 
    28 13
    28 13
      48         -1713.225068573879526              0.4573692887D-03
   current occupation vector 
    28 13
    28 13
      49         -1713.225068576510239              0.4355408095D-03
   current occupation vector 
    28 13
    28 13
      50         -1713.225068578427909              0.3786969498D-03
   current occupation vector 
    28 13
    28 13
      51         -1713.225068579100935              0.2124954409D-03
   current occupation vector 
    28 13
    28 13
      52         -1713.225068579480194              0.9147045152D-04
   current occupation vector 
    28 13
    28 13
      53         -1713.225068579730760              0.1366290922D-03
   current occupation vector 
    28 13
    28 13
      54         -1713.225068579633898              0.9534016324D-04
   current occupation vector 
    28 13
    28 13
      55         -1713.225068579739855              0.9951271765D-04
   current occupation vector 
    28 13
    28 13
      56         -1713.225068579746676              0.9806873694D-05
   current occupation vector 
    28 13
    28 13
      57         -1713.225068579765775              0.1874031968D-04
   current occupation vector 
    28 13
    28 13
      58         -1713.225068579763501              0.1831991923D-04
   current occupation vector 
    28 13
    28 13
      59         -1713.225068579780327              0.1748041410D-04
   current occupation vector 
    28 13
    28 13
      60         -1713.225068579793515              0.1452912216D-04
   current occupation vector 
    28 13
    28 13
      61         -1713.225068579783056              0.1984925263D-04
   current occupation vector 
    28 13
    28 13
      62         -1713.225068579776234              0.7028253732D-05
   current occupation vector 
    28 13
    28 13
      63         -1713.225068579786694              0.1009695417D-04
   current occupation vector 
    28 13
    28 13
      64         -1713.225068579798062              0.1714656344D-05
   current occupation vector 
    28 13
    28 13
      65         -1713.225068579788967              0.1055276885D-05
   current occupation vector 
    28 13
    28 13
      66         -1713.225068579802155              0.4232013682D-06
   current occupation vector 
    28 13
    28 13
      67         -1713.225068579786239              0.7012343159D-06
   current occupation vector 
    28 13
    28 13
      68         -1713.225068579793970              0.5365277476D-06
   current occupation vector 
    28 13
    28 13
      69         -1713.225068579788967              0.5024898719D-06
   current occupation vector 
    28 13
    28 13
      70         -1713.225068579791696              0.2072401091D-06
   current occupation vector 
    28 13
    28 13
      71         -1713.225068579818526              0.8456262224D-07
   current occupation vector 
    28 13
    28 13
      72         -1713.225068579786694              0.1194065575D-06
   current occupation vector 
    28 13
    28 13
      73         -1713.225068579775325              0.1025134058D-06
   current occupation vector 
    28 13
    28 13
      74         -1713.225068579784420              0.1315452360D-06
   current occupation vector 
    28 13
    28 13
      75         -1713.225068579794879              0.1646687973D-06
   current occupation vector 
    28 13
    28 13
      76         -1713.225068579790786              0.1081384031D-06
   current occupation vector 
    28 13
    28 13
      77         -1713.225068579787603              0.1298906360D-07
   current occupation vector 
    28 13
    28 13
      78         -1713.225068579794424              0.4231924855D-07
   current occupation vector 
    28 13
    28 13
      79         -1713.225068579788967              0.2255812027D-08
   current occupation vector 
    28 13
    28 13
      80         -1713.225068579775325              0.5502073464D-08
   current occupation vector 
    28 13
    28 13
      81         -1713.225068579773051              0.2809122268D-08
   current occupation vector 
    28 13
    28 13
      82         -1713.225068579778053              0.4685445809D-08
   current occupation vector 
    28 13
    28 13
      83         -1713.225068579791241              0.2888189243D-08
   current occupation vector 
    28 13
    28 13
      84         -1713.225068579776689              0.2909408270D-09
   current occupation vector 
    28 13
    28 13
      85         -1713.225068579773506              0.2488742989D-08
   current occupation vector 
    28 13
    28 13
      86         -1713.225068579793515              0.1686035755D-08
   current occupation vector 
    28 13
    28 13
      87         -1713.225068579797608              0.2612518202D-08
   current occupation vector 
    28 13
    28 13
      88         -1713.225068579780782              0.4312942004D-08
   current occupation vector 
    28 13
    28 13
      89         -1713.225068579809431              0.4305675816D-08
   current occupation vector 
    28 13
    28 13
      90         -1713.225068579800791              0.4300281908D-08
   current occupation vector 
    28 13
    28 13
      91         -1713.225068579800791              0.3800149972D-08
   current occupation vector 
    28 13
    28 13
      92         -1713.225068579787148              0.1913740721D-08
   current occupation vector 
    28 13
    28 13
      93         -1713.225068579784420              0.2805419896D-08
   current occupation vector 
    28 13
    28 13
      94         -1713.225068579801246              0.1659124838D-08
   current occupation vector 
    28 13
    28 13
      95         -1713.225068579794424              0.1294709673D-08
   current occupation vector 
    28 13
    28 13
      96         -1713.225068579791696              0.2945808042D-09
   current occupation vector 
    28 13
    28 13
      97         -1713.225068579794424              0.3147024863D-09
   current occupation vector 
    28 13
    28 13
      98         -1713.225068579783965              0.1648881032D-09
   current occupation vector 
    28 13
    28 13
      99         -1713.225068579806248              0.2119198150D-09
   current occupation vector 
    28 13
    28 13
     100         -1713.225068579788513              0.2690137002D-09
   current occupation vector 
    28 13
    28 13
     101         -1713.225068579788967              0.7234772781D-09
   current occupation vector 
    28 13
    28 13
     102         -1713.225068579783056              0.4879585624D-09
   current occupation vector 
    28 13
    28 13
     103         -1713.225068579787148              0.3179811969D-09
   current occupation vector 
    28 13
    28 13
     104         -1713.225068579788513              0.2465863069D-09
   current occupation vector 
    28 13
    28 13
     105         -1713.225068579789877              0.2311395519D-09
   current occupation vector 
    28 13
    28 13
     106         -1713.225068579792605              0.1757567425D-09
   current occupation vector 
    28 13
    28 13

  SCF has converged.

 Density matrix saved to file den.dat
 total electron number:   82.000000000000526     
     E(SCF)=     -1713.225068579794879              0.4683203825D-10


  Final occupancies:

     Alpha population by irrep:  28   13
      Beta population by irrep:  28   13


  Eigenvector printing suppressed.

 @PUTMOS-I, Writing converged MOs to NEWMOS. 
 @PUTMOS-I, Symmetry   1 Full Blocks 24 Partial Blocksize   1
 @PUTMOS-I, Symmetry   2 Full Blocks 14 Partial Blocksize   2
 @PUTFOCK-I, Writing converged Fock matrix to NEWFOCK. 
 @PUTFOCK-I, Symmetry   1 Full Blocks 24 Partial Blocksize   1
 @PUTFOCK-I, Symmetry   2 Full Blocks 14 Partial Blocksize   2



  ORBITAL EIGENVALUES (ALPHA)  (1H = 27.2113834 eV)

       MO #        E(hartree)               E(eV)           FULLSYM    COMPSYM
       ----   --------------------   --------------------   -------   ---------
    1     1        -261.3597663600       -7111.9608077566      A1       A'  (1)
    2     2         -31.9276628142        -868.7958739031      A1       A'  (1)
    3     3         -27.4138491493        -745.9687596725      A1       A'  (1)
    4    98         -27.4039116197        -745.6983457422       E       A'' (2)
    5     4         -27.4039116197        -745.6983457420       E       A'  (1)
    6     5         -20.6690467495        -562.4333556137      A1       A'  (1)
    7    99         -20.6659742107        -562.3497475824               A'' (2)
    8     6         -20.6659742107        -562.3497475823               A'  (1)
    9     7         -20.6659738259        -562.3497371121               A'  (1)
   10     8         -11.3955544331        -310.0888007335      A1       A'  (1)
   11   100         -11.3952960534        -310.0817698653               A'' (2)
   12     9         -11.3952960534        -310.0817698652               A'  (1)
   13    10         -11.3952957727        -310.0817622263               A'  (1)
   14    11          -4.1165397205        -112.0167406159      A1       A'  (1)
   15    12          -2.7058921710         -73.6310693047      A1       A'  (1)
   16   101          -2.6939898420         -73.3071904666       E       A'' (2)
   17    13          -2.6939898420         -73.3071904665       E       A'  (1)
   18    14          -1.5060417166         -40.9814785664      A1       A'  (1)
   19   102          -1.5035048867         -40.9124479148               A'' (2)
   20    15          -1.5035048867         -40.9124479147               A'  (1)
   21    16          -1.5035008056         -40.9123368633               A'  (1)
   22    17          -0.8384295586         -22.8148281739      A1       A'  (1)
   23   103          -0.8064295971         -21.9440649506       E       A'' (2)
   24    18          -0.8064295971         -21.9440649505       E       A'  (1)
   25    19          -0.8028656459         -21.8470849093      A1       A'  (1)
   26    20          -0.7028916705         -19.1266547357      A1       A'  (1)
   27   104          -0.6548876912         -17.8204000500       E       A'' (2)
   28    21          -0.6548876912         -17.8204000500       E       A'  (1)
   29    22          -0.6411149232         -17.4456239791       E       A'  (1)
   30   105          -0.6411149232         -17.4456239790       E       A'' (2)
   31    23          -0.6359589883         -17.3053238586      A1       A'  (1)
   32   106          -0.6316389845         -17.1877705769      A2       A'' (2)
   33   107          -0.6298277116         -17.1384833372       E       A'' (2)
   34    24          -0.6298277116         -17.1384833371       E       A'  (1)
   35   108          -0.6159550086         -16.7609878963       E       A'' (2)
   36    25          -0.6159550086         -16.7609878963       E       A'  (1)
   37    26          -0.5996427694         -16.3171093015      A1       A'  (1)
   38   109          -0.4907662952         -13.3544298177       E       A'' (2)
   39    27          -0.4907662952         -13.3544298173       E       A'  (1)
   40    28          -0.3328440311          -9.0571465426       E       A'  (1)
   41   110          -0.3328440311          -9.0571465422       E       A'' (2)
  +++++++++++++++++++++++++++++++++++++++++++++++++++++++++++++++++++++++++++++
   42    29           0.0242149807           0.6589231231      A1       A'  (1)
   43    30           0.0879952130           2.3944714773      A1       A'  (1)
   44   111           0.1085512648           2.9538300844       E       A'' (2)
   45    31           0.1085512648           2.9538300845       E       A'  (1)
   46    32           0.1143487259           3.1115870230       E       A'  (1)
   47   112           0.1143487259           3.1115870230       E       A'' (2)
   48    33           0.1323910923           3.6025447710      A1       A'  (1)
   49   113           0.1376756512           3.7463449286      A2       A'' (2)
   50    34           0.1542538898           4.1974617365       E       A'  (1)
   51   114           0.1542538898           4.1974617367       E       A'' (2)
   52   115           0.1930040864           5.2519081925       E       A'' (2)
   53    35           0.1930040864           5.2519081925       E       A'  (1)
   54    36           0.2549021871           6.9362411426      A1       A'  (1)
   55    37           0.3018176977           8.2128770887      A1       A'  (1)
   56    38           0.3648893035           9.9291427375       E       A'  (1)
   57   116           0.3648893036           9.9291427375       E       A'' (2)
   58    39           0.3913899775          10.6502627363       E       A'  (1)
   59   117           0.3913899775          10.6502627363       E       A'' (2)
   60    40           0.3951442596          10.7524219467      A1       A'  (1)
   61    41           0.5186540923          14.1132953574      A1       A'  (1)
   62    42           0.5369003925          14.6098024282      A1       A'  (1)
   63    43           0.5380602081          14.6413626145       E       A'  (1)
   64   118           0.5380602081          14.6413626147       E       A'' (2)
   65   119           0.6500331369          17.6883009111       E       A'' (2)
   66    44           0.6500331369          17.6883009112       E       A'  (1)
   67    45           0.6746510079          18.3581872367      A1       A'  (1)
   68   120           0.7209974752          19.6193387290       E       A'' (2)
   69    46           0.7209974752          19.6193387291       E       A'  (1)
   70   121           0.7719252794          21.0051547334      A2       A'' (2)
   71    47           0.7802858026          21.2326561363      A1       A'  (1)
   72   122           0.7959751343          21.6595845574       E       A'' (2)
   73    48           0.7959751343          21.6595845575       E       A'  (1)
   74    49           0.8286920136          22.5498561035      A1       A'  (1)
   75    50           0.8688201334          23.6417977546       E       A'  (1)
   76   123           0.8688201334          23.6417977546       E       A'' (2)
   77    51           0.9102736834          24.7698061970      A1       A'  (1)
   78   124           0.9234588552          25.1285929618       E       A'' (2)
   79    52           0.9234588552          25.1285929620       E       A'  (1)
   80    53           0.9917107629          26.9858217900      A1       A'  (1)
   81   125           1.0194719876          27.7412431213       E       A'' (2)
   82    54           1.0194719876          27.7412431214       E       A'  (1)
   83    55           1.0199569183          27.7544387541      A1       A'  (1)
   84    56           1.1774096069          32.0389442328      A1       A'  (1)
   85    57           1.2289072343          33.4402659158       E       A'  (1)
   86   126           1.2289072343          33.4402659159       E       A'' (2)
   87   127           1.2448912467          33.8752130045       E       A'' (2)
   88    58           1.2448912467          33.8752130046       E       A'  (1)
   89   128           1.2815165579          34.8718383910       E       A'' (2)
   90    59           1.2815165579          34.8718383910       E       A'  (1)
   91   129           1.2881522036          35.0524034906      A2       A'' (2)
   92    60           1.2902306847          35.1089618370      A1       A'  (1)
   93   130           1.2974224657          35.3046601473       E       A'' (2)
   94    61           1.2974224658          35.3046601473       E       A'  (1)
   95   131           1.3182923670          35.8725590330      A2       A'' (2)
   96    62           1.3281974977          36.1420913404      A1       A'  (1)
   97   132           1.3538909464          36.8412456240       E       A'' (2)
   98    63           1.3538909464          36.8412456241       E       A'  (1)
   99    64           1.4076015331          38.3027849919       E       A'  (1)
  100   133           1.4076015331          38.3027849919       E       A'' (2)
  101    65           1.4346032013          39.0375377373       E       A'  (1)
  102   134           1.4346032013          39.0375377373       E       A'' (2)
  103   135           1.4458817574          39.3444428509      A2       A'' (2)
  104   136           1.4810961624          40.3026755266       E       A'' (2)
  105    66           1.4810961624          40.3026755267       E       A'  (1)
  106    67           1.5455833635          42.0574614798      A1       A'  (1)
  107   137           1.5648713622          42.5823146083       E       A'' (2)
  108    68           1.5648713622          42.5823146089       E       A'  (1)
  109    69           1.5749843058          42.8575017954      A1       A'  (1)
  110   138           1.6897234076          45.9797114831       E       A'' (2)
  111    70           1.6897234076          45.9797114832       E       A'  (1)
  112    71           1.7084438444          46.4891204683      A1       A'  (1)
  113   139           1.7867042448          48.6186942278       E       A'' (2)
  114    72           1.7867042448          48.6186942280       E       A'  (1)
  115    73           1.8070467919          49.1722430773      A1       A'  (1)
  116    74           2.1029092496          57.2230698474      A1       A'  (1)
  117   140           2.1071026672          57.3371785409       E       A'' (2)
  118    75           2.1071026672          57.3371785410       E       A'  (1)
  119    76           2.1229076798          57.7672547975      A1       A'  (1)
  120   141           2.1865206824          59.4982526005       E       A'' (2)
  121    77           2.1865206824          59.4982526006       E       A'  (1)
  122    78           2.3136824008          62.9584988732      A1       A'  (1)
  123   142           2.3977910915          65.2472127027       E       A'' (2)
  124    79           2.3977910915          65.2472127029       E       A'  (1)
  125    80           2.8464991227          77.4571789767      A1       A'  (1)
  126   143           2.9346618410          79.8562085056      A2       A'' (2)
  127   144           2.9358962499          79.8897984780       E       A'' (2)
  128    81           2.9358962499          79.8897984780       E       A'  (1)
  129   145           2.9384940084          79.9604870823       E       A'' (2)
  130    82           2.9384940084          79.9604870824       E       A'  (1)
  131    83           2.9392189476          79.9802136809       E       A'  (1)
  132   146           2.9392189476          79.9802136810       E       A'' (2)
  133    84           2.9525772488          80.3437115348      A1       A'  (1)
  134    85           3.0600308861          83.2676736568      A1       A'  (1)
  135   147           3.0640339984          83.3766038823       E       A'' (2)
  136    86           3.0640339984          83.3766038824       E       A'  (1)
  137   148           3.2318615100          87.9434226447      A2       A'' (2)
  138   149           3.2951247556          89.6649030757       E       A'' (2)
  139    87           3.2951247556          89.6649030758       E       A'  (1)
  140    88           3.4800546152          94.6971003864       E       A'  (1)
  141   150           3.4800546152          94.6971003864       E       A'' (2)
  142    89           3.4842970775          94.8125436554      A1       A'  (1)
  143    90           3.5601213047          96.8758257719       E       A'  (1)
  144   151           3.5601213047          96.8758257719       E       A'' (2)
  145   152           3.7350234291         101.6351545373       E       A'' (2)
  146    91           3.7350234291         101.6351545374       E       A'  (1)
  147    92           3.8271120333         104.1410128530      A1       A'  (1)
  148   153           3.8456213298         104.6446764156       E       A'' (2)
  149    93           3.8456213298         104.6446764157       E       A'  (1)
  150    94           3.8470086238         104.6824266062      A1       A'  (1)
  151   154           3.9331311691         107.0259402052      A2       A'' (2)
  152   155           4.1592201912         113.1781352671       E       A'' (2)
  153    95           4.1592201912         113.1781352671       E       A'  (1)
  154    96           4.2898389339         116.7324519548      A1       A'  (1)
  155    97           4.4940755403         122.2900125565      A1       A'  (1)


  VSCF finished.

 @CHECKOUT-I, Total execution time (CPU/WALL):      339.30/      29.49 seconds.
--executable xvscf finished with status     0 in       29.50 seconds (walltime).
 --invoking executable--
/opt/cfour/2.1/bin/xvtran
 @GETMEM-I,  Allocated   30517 MB of main memory.
  Full RHF integral transformation
  The following  17 MOs will be dropped:
    1  2  3  4  5  6  7  8  9 10 11 12 13 29 30 31 32
  There are 138 active molecular orbitals.
  Transformation of IIII integrals :
  1 pass through the AO integral file was required.
    11919784 AO integrals were read.
     7477536 MO integrals were written to HF2.
  Transformation of IIJJ integrals :
  1 pass through the AO integral file was required.
     7647266 AO integrals were read.
     5301416 MO integrals were written to HF2.
  Transformation of IJIJ integrals :
  1 pass through the AO integral file was required.
    14782837 AO integrals were read.
    10289856 MO integrals were written to HF2.
  Summary of active molecular orbitals: 
------------------------------------------------------------------------

  Index      Eigenvalue    Symmetry    Index      Eigenvalue    Symmetry
------------------------------------------------------------------------
     1        -1.5060417        1        70         2.1029092        1
     2        -1.5035049        1        71         2.1071027        1
     3        -1.5035008        1        72         2.1229077        1
     4        -0.8384296        1        73         2.1865207        1
     5        -0.8064296        1        74         2.3136824        1
     6        -0.8028656        1        75         2.3977911        1
     7        -0.7028917        1        76         2.8464991        1
     8        -0.6548877        1        77         2.9358962        1
     9        -0.6411149        1        78         2.9384940        1
    10        -0.6359590        1        79         2.9392189        1
    11        -0.6298277        1        80         2.9525772        1
    12        -0.6159550        1        81         3.0600309        1
    13        -0.5996428        1        82         3.0640340        1
    14        -0.4907663        1        83         3.2951248        1
    15        -0.3328440        1        84         3.4800546        1
    16        -1.5035049        2        85         3.4842971        1
    17        -0.8064296        2        86         3.5601213        1
    18        -0.6548877        2        87         3.7350234        1
    19        -0.6411149        2        88         3.8271120        1
    20        -0.6316390        2        89         3.8456213        1
    21        -0.6298277        2        90         3.8470086        1
    22        -0.6159550        2        91         4.1592202        1
    23        -0.4907663        2        92         4.2898389        1
    24        -0.3328440        2        93         4.4940755        1
    25         0.0242150        1        94         0.1085513        2
    26         0.0879952        1        95         0.1143487        2
    27         0.1085513        1        96         0.1376757        2
    28         0.1143487        1        97         0.1542539        2
    29         0.1323911        1        98         0.1930041        2
    30         0.1542539        1        99         0.3648893        2
    31         0.1930041        1       100         0.3913900        2
    32         0.2549022        1       101         0.5380602        2
    33         0.3018177        1       102         0.6500331        2
    34         0.3648893        1       103         0.7209975        2
    35         0.3913900        1       104         0.7719253        2
    36         0.3951443        1       105         0.7959751        2
    37         0.5186541        1       106         0.8688201        2
    38         0.5369004        1       107         0.9234589        2
    39         0.5380602        1       108         1.0194720        2
    40         0.6500331        1       109         1.2289072        2
    41         0.6746510        1       110         1.2448912        2
    42         0.7209975        1       111         1.2815166        2
    43         0.7802858        1       112         1.2881522        2
    44         0.7959751        1       113         1.2974225        2
    45         0.8286920        1       114         1.3182924        2
    46         0.8688201        1       115         1.3538909        2
    47         0.9102737        1       116         1.4076015        2
    48         0.9234589        1       117         1.4346032        2
    49         0.9917108        1       118         1.4458818        2
    50         1.0194720        1       119         1.4810962        2
    51         1.0199569        1       120         1.5648714        2
    52         1.1774096        1       121         1.6897234        2
    53         1.2289072        1       122         1.7867042        2
    54         1.2448912        1       123         2.1071027        2
    55         1.2815166        1       124         2.1865207        2
    56         1.2902307        1       125         2.3977911        2
    57         1.2974225        1       126         2.9346618        2
    58         1.3281975        1       127         2.9358962        2
    59         1.3538909        1       128         2.9384940        2
    60         1.4076015        1       129         2.9392189        2
    61         1.4346032        1       130         3.0640340        2
    62         1.4810962        1       131         3.2318615        2
    63         1.5455834        1       132         3.2951248        2
    64         1.5648714        1       133         3.4800546        2
    65         1.5749843        1       134         3.5601213        2
    66         1.6897234        1       135         3.7350234        2
    67         1.7084438        1       136         3.8456213        2
    68         1.7867042        1       137         3.9331312        2
    69         1.8070468        1       138         4.1592202        2
------------------------------------------------------------------------
  -1.5060417165840911       -1.5035048866602159       -1.5035008055948986      -0.83842955863498336      -0.80642959705331141      -0.80286564590028475      -0.70289167053754231      -0.65488769122871726      -0.64111492321744201      -0.63595898834637121      -0.62982771163009021      -0.61595500860467955      -0.59964276941325112      -0.49076629515584674      -0.33284403109688360       -1.5035048866646101      -0.80642959705730188      -0.65488769123027701      -0.64111492321414554      -0.63163898447253586      -0.62982771163481999      -0.61595500860598185      -0.49076629517284470      -0.33284403108146149        2.4214980671534582E-002   8.7995212961549690E-002  0.10855126477940102       0.11434872594610995       0.13239109228824475       0.15425388980726984       0.19300408639042410       0.25490218709852103       0.30181769768662781       0.36488930354994931       0.39138997748655607       0.39514425961519922       0.51865409229616644       0.53690039250823784       0.53806020808635169       0.65003313691092157       0.67465100788357635       0.72099747523651947       0.78028580260560776       0.79597513434380684       0.82869201363403455       0.86882013336196873       0.91027368336555370       0.92345885516334658       0.99171076285594895        1.0194719876443903        1.0199569182529340        1.1774096069225652        1.2289072343088372        1.2448912466758220        1.2815165579197252        1.2902306847424834        1.2974224657513131        1.3281974976849795        1.3538909463935009        1.4076015331111229        1.4346032012950591        1.4810961623761605        1.5455833634628171        1.5648713622163559        1.5749843058468156        1.6897234075655978        1.7084438444342196        1.7867042448138812        1.8070467919431259        2.1029092496411717        2.1071026672247752        2.1229076797870858        2.1865206823927834        2.3136824007689119        2.3977910914640921        2.8464991227427250        2.9358962498770826        2.9384940084431950        2.9392189476436403        2.9525772487832662        3.0600308860728664        3.0640339984468210        3.2951247556115155        3.4800546151737177        3.4842970775024633        3.5601213046697882        3.7350234291051638        3.8271120333047972        3.8456213297735244        3.8470086238327243        4.1592201911770577        4.2898389339058669        4.4940755403317958       0.10855126477758864       0.11434872594713551       0.13767565116049263       0.15425388981529192       0.19300408638945513       0.36488930355296273       0.39138997748673798       0.53806020809230104       0.65003313690751008       0.72099747523390978       0.77192527938105904       0.79597513434101941       0.86882013336427866       0.92345885515762249        1.0194719876409282        1.2289072343118126        1.2448912466731945        1.2815165579187275        1.2881522036325439        1.2974224657488718        1.3182923670481834        1.3538909463891582        1.4076015331123881        1.4346032012963315        1.4458817573717722        1.4810961623747629        1.5648713621925601        1.6897234075614853        1.7867042448067829        2.1071026672202828        2.1865206823881165        2.3977910914545397        2.9346618410275354        2.9358962498753765        2.9384940084419737        2.9392189476465891        3.0640339984446467        3.2318615100125965        3.2951247556096717        3.4800546151740543        3.5601213046715809        3.7350234291039333        3.8456213297703825        3.9331311691135924        4.1592201911743647     
 @CHECKOUT-I, Total execution time (CPU/WALL):      118.99/      19.76 seconds.
--executable xvtran finished with status     0 in       19.78 seconds (walltime).
 --invoking executable--
/opt/cfour/2.1/bin/xintprc
 @GETMEM-I,  Allocated   30517 MB of main memory.
  @GMOIAA-I, Processing MO integrals for spin case AA.
  @GMOIAA-I, Generation of integral list completed.
                      TYPE                NUMBER
                      ----               --------
                      PPPP              10774956
                      PPPH               8992028
                      PPHH               1877967
                      PHPH                988422
                      PHHH                412560
                      HHHH                 22875

                     TOTAL              23068808

  @FORMT2-I, Second-order MP correlation energies:
            ------------------------------------------------
            E(SCF)                  =  -1713.225068579795 a.u.
            E2(AA)                  =     -0.273593865672 a.u.
            E2(AB)                  =     -1.215228069167 a.u.
            E2(TOT)                 =     -1.762415800512 a.u.
            Total MP2 energy        =  -1714.987484380306 a.u.
[...]
 -------------------------------------------------------
         1                S              1.99999525
         1                S              1.99987885
         1                S              2.01187415
         1                S              0.19438221
         1                S              0.02014087
         1                S             -0.01143851
         1                P              1.99995862
         1                P              1.99830312
         1                P              0.40187367
         1                P             -0.45456110
         1                P              0.11001214
         1                P              1.99997376
         1                P              2.00044279
         1                P              0.07517373
         1                P              0.50814683
         1                P             -0.11609309
         1                P              1.99997376
         1                P              2.00044279
         1                P              0.07517373
         1                P              0.50814683
         1                P             -0.11609309
         1                D              0.15787966
         1                D              0.02137232
         1                D             -0.02642207
         1                D              1.84804272
         1                D              0.00733270
         1                D              0.00540073
         1                D              1.84804272
         1                D              0.00733270
         1                D              0.00540073
         1                D              0.75645048
         1                D              0.01804325
         1                D             -0.01021437
         1                D              1.43396114
         1                D              0.02540035
         1                D             -0.00721770
         1                D              0.75645048
         1                D              0.01804325
         1                D             -0.01021437
         1                F              0.00072401
         1                F              0.00092143
         1                F              0.00092143
         1                F              0.00063602
         1                F              0.00018602
         1                F              0.00063602
         1                F              0.00060371
         1                F              0.00031267
         1                F              0.00135042
         1                F              0.00025779
         2                S              2.00286710
         2                S              1.68653617
         2                S             -0.10401313
         2                P              1.21172512
         2                P             -0.23163643
         2                P              0.65347455
         2                P             -0.10101823
         2                P              0.65347455
         2                P             -0.10101823
         2                D              0.02234480
         2                D              0.06044439
         2                D              0.06044439
         2                D              0.00605944
         2                D              0.00094647
         2                D              0.00605944
         3                S              2.00279959
         5                S              2.00279959
         3                S              1.68134016
         5                S              1.68134016
         3                S             -0.11482116
         5                S             -0.11482116
         3                P              0.62397433
         5                P              0.62397433
         3                P             -0.07636816
         5                P             -0.07636816
         3                P              0.82399012
         5                P              0.82399012
         3                P             -0.13491098
         5                P             -0.13491098
         3                P              1.07827223
         5                P              1.07827223
         3                P             -0.20647480
         5                P             -0.20647480
         3                D              0.00621824
         5                D              0.00621824
         3                D              0.01325670
         5                D              0.01325670
         3                D              0.03904614
         5                D              0.03904614
         3                D              0.02382599
         5                D              0.02382599
         3                D              0.03832181
         5                D              0.03832181
         3                D              0.03337122
         5                D              0.03337122
         4                S              2.00279959
         4                S              1.68134016
         4                S             -0.11482116
         4                P              0.62397433
         4                P             -0.07636816
         4                P              1.20541328
         4                P             -0.24225671
         4                P              0.69684906
         4                P             -0.09912907
         4                D              0.00621824
         4                D              0.05194085
         4                D              0.00036198
         4                D              0.02631912
         4                D              0.06197124
         4                D              0.00722867
         6                S              2.00198746
         6                S              1.85017525
         6                S             -0.08161786
         6                P              1.52230418
         6                P             -0.15278886
         6                P              1.51194859
         6                P             -0.01489587
         6                P              1.51194859
         6                P             -0.01489587
         6                D              0.00693769
         6                D              0.00709900
         6                D              0.00709900
         6                D              0.00173462
         6                D              0.00000039
         6                D              0.00173462
         7                S              2.00194686
         9                S              2.00194686
         7                S              1.85214975
         9                S              1.85214975
         7                S             -0.08696127
         9                S             -0.08696127
         7                P              1.45372834
         9                P              1.45372834
         7                P             -0.01654787
         9                P             -0.01654787
         7                P              1.55278216
         9                P              1.55278216
         7                P             -0.04981217
         9                P             -0.04981217
         7                P              1.53638597
         9                P              1.53638597
         7                P             -0.11774556
         9                P             -0.11774556
         7                D              0.00171230
         9                D              0.00171230
         7                D              0.00184264
         9                D              0.00184264
         7                D              0.00552676
         9                D              0.00552676
         7                D              0.00268466
         9                D              0.00268466
         7                D              0.00759084
         9                D              0.00759084
         7                D              0.00527421
         9                D              0.00527421
         8                S              2.00194686
         8                S              1.85214975
         8                S             -0.08696127
         8                P              1.45372834
         8                P             -0.01654787
         8                P              1.52818787
         8                P             -0.15171225
         8                P              1.56098026
         8                P             -0.01584548
         8                D              0.00171230
         8                D              0.00736882
         8                D              0.00000057
         8                D              0.00693507
         8                D              0.00685867
         8                D              0.00175597
 -------------------------------------------------------
  Population analysis by atoms (atomic charges).
 -------------------------------------------------------
     Z-matrix
      Center          Function          Population
 -------------------------------------------------------
         1                              26.06734160
         2                               5.82669041
         3                               5.83184141
         5                               5.83184141
         4                               5.83184141
         6                               8.15877093
         7                               8.15055761
         9                               8.15055761
         8                               8.15055761
 -------------------------------------------------------

  Mulliken population analysis of CCSD(T) density.
   Total density is analyzed.

  Population analysis by orbitals.
 -------------------------------------------------------
     Z-matrix
      Center          Function          Population
 -------------------------------------------------------
         1                S              1.99999578
         1                S              1.99988781
         1                S              2.00839165
         1                S              0.30262934
         1                S              0.03323566
         1                S             -0.01050228
         1                P              1.99996728
         1                P              1.99828344
         1                P              0.36712770
         1                P             -0.37535573
         1                P              0.09322462
         1                P              1.99998206
         1                P              1.99857217
         1                P              0.20473579
         1                P              0.33394386
         1                P             -0.06092218
         1                P              1.99998206
         1                P              1.99857217
         1                P              0.20473579
         1                P              0.33394386
         1                P             -0.06092218
         1                D              0.36140079
         1                D              0.01454806
         1                D             -0.02059108
         1                D              1.60754494
         1                D              0.03430716
         1                D              0.03870183
         1                D              1.60754494
         1                D              0.03430716
         1                D              0.03870183
         1                D              0.79826061
         1                D              0.02212408
         1                D             -0.00081275
         1                D              1.41582083
         1                D              0.03697414
         1                D              0.00867004
         1                D              0.79826061
         1                D              0.02212408
         1                D             -0.00081275
         1                F              0.00134765
         1                F              0.00274816
         1                F              0.00274816
         1                F              0.00272743
         1                F              0.00343339
         1                F              0.00272743
         1                F              0.00165853
         1                F              0.00290637
         1                F              0.00360150
         1                F              0.00142682
         2                S              2.00335035
         2                S              1.57982541
         2                S             -0.15175731
         2                P              1.10878927
         2                P             -0.20970856
         2                P              0.81085597
         2                P             -0.11390715
         2                P              0.81085597
         2                P             -0.11390715
         2                D              0.02367066
         2                D              0.06087774
         2                D              0.06087774
         2                D              0.00820103
         2                D              0.00456672
         2                D              0.00820103
         3                S              2.00333116
         5                S              2.00333116
         3                S              1.62876901
         5                S              1.62876901
         3                S             -0.13612290
         5                S             -0.13612290
         3                P              0.74651756
         5                P              0.74651756
         3                P             -0.09195995
         5                P             -0.09195995
         3                P              0.89465801
         5                P              0.89465801
         3                P             -0.13483035
         5                P             -0.13483035
         3                P              1.05555756
         5                P              1.05555756
         3                P             -0.19392885
         5                P             -0.19392885
         3                D              0.00860161
         5                D              0.00860161
         3                D              0.01581503
         5                D              0.01581503
         3                D              0.03937064
         5                D              0.03937064
         3                D              0.02305269
         5                D              0.02305269
         3                D              0.03877790
         5                D              0.03877790
         3                D              0.03232424
         5                D              0.03232424
         4                S              2.00333116
         4                S              1.62876901
         4                S             -0.13612290
         4                P              0.74651756
         4                P             -0.09195995
         4                P              1.13600734
         4                P             -0.22347810
         4                P              0.81420823
         4                P             -0.10528110
         4                D              0.00860161
         4                D              0.05114845
         4                D              0.00403722
         4                D              0.02773635
         4                D              0.05722525
         4                D              0.00919324
         6                S              2.00213991
         6                S              1.86358266
         6                S             -0.11814513
         6                P              1.49955229
         6                P             -0.14146588
         6                P              1.48981290
         6                P             -0.04147035
         6                P              1.48981290
         6                P             -0.04147035
         6                D              0.00884755
         6                D              0.01045540
         6                D              0.01045540
         6                D              0.00407113
         6                D              0.00371848
         6                D              0.00407113
         7                S              2.00209210
         9                S              2.00209210
         7                S              1.86694791
         9                S              1.86694791
         7                S             -0.12507914
         9                S             -0.12507914
         7                P              1.43811540
         9                P              1.43811540
         7                P             -0.04866443
         9                P             -0.04866443
         7                P              1.51321479
         9                P              1.51321479
         7                P             -0.06711902
         9                P             -0.06711902
         7                P              1.51708428
         9                P              1.51708428
         7                P             -0.11673788
         9                P             -0.11673788
         7                D              0.00401594
         9                D              0.00401594
         7                D              0.00536836
         9                D              0.00536836
         7                D              0.00871496
         9                D              0.00871496
         7                D              0.00506212
         9                D              0.00506212
         7                D              0.01073855
         9                D              0.01073855
         7                D              0.00742321
         9                D              0.00742321
         8                S              2.00209210
         8                S              1.86694791
         8                S             -0.12507914
         8                P              1.43811540
         8                P             -0.04866443
         8                P              1.51901903
         8                P             -0.14154731
         8                P              1.51128005
         8                P             -0.04230959
         8                D              0.00401594
         8                D              0.01038826
         8                D              0.00369506
         8                D              0.00879965
         8                D              0.01034676
         8                D              0.00407747
 -------------------------------------------------------
  Population analysis by atoms (atomic charges).
 -------------------------------------------------------
     Z-matrix
      Center          Function          Population
 -------------------------------------------------------
         1                              26.21190870
         2                               5.89079171
         3                               5.92993336
         5                               5.92993336
         4                               5.92993336
         6                               8.04396805
         7                               8.02117715
         9                               8.02117715
         8                               8.02117715
 -------------------------------------------------------
 @CHECKOUT-I, Total execution time (CPU/WALL):        2.27/       0.15 seconds.
--executable xprops finished with status     0 in        0.17 seconds (walltime).
  The final electronic energy is     -1714.949093725387002 a.u. 
  This computation required                         1088.83 seconds (walltime).
Attempting to clean /scratch/jearias... save is False. TIME: Wed 05 Mar 2025 08:29:16 AM PST
Total of 1089 seconds elapsed for this process.
