[Molden Format]                                                                 
[ATOMS] AU                                                                      
FE       1   26       -0.7105247070       -0.0000000000        0.0000000000     
C        2    6        2.6270875266       -0.0000000000        0.0000000000     
C        3    6       -0.8286781204        1.7456879723       -3.0236202623     
C        4    6       -0.8286781204       -3.4913759447       -0.0000000000     
C        5    6       -0.8286781204        1.7456879723        3.0236202623     
O        6    8        4.8198986474       -0.0000000000        0.0000000000     
O        7    8       -0.8136617153        2.8395490392       -4.9182432065     
O        8    8       -0.8136617153       -5.6790980784        0.0000000000     
O        9    8       -0.8136617153        2.8395490392        4.9182432065     
[Molden Format]                                                                 
[GTO]                                                                           
  1 0
s  20 1.00
   4316265.0000000000        8.0488029999999998E-006                            
   646342.40000000002        6.2583059999999998E-005                            
   147089.70000000001        3.2902389999999999E-004                            
   41661.519999999997        1.3873550000000001E-003                            
   13590.770000000000        5.0232560000000002E-003                            
   4905.7500000000000        1.6101399999999998E-002                            
   1912.7460000000001        4.5900339999999998E-002                            
   792.60429999999997       0.11361540000000001                                 
   344.80650000000003       0.22838690000000000                                 
   155.89990000000000       0.32211590000000001                                 
   72.230909999999994       0.23836610000000000                                 
   32.725059999999999        7.4046669999999995E-002                            
   15.667619999999999        9.2141970000000004E-002                            
   7.5034830000000001        9.3397900000000006E-002                            
   3.3122229999999999        1.5739650000000001E-002                            
   1.5584709999999999       -4.1866819999999998E-004                            
  0.68391400000000002        5.3763179999999999E-005                            
  0.14675700000000000       -3.8166539999999997E-005                            
   7.0583000000000007E-002   4.3196030000000000E-005                            
   3.1448999999999998E-002  -3.4010190000000000E-006                            
s  20 1.00
   4316265.0000000000       -4.1559539999999997E-006                            
   646342.40000000002       -3.2314010000000003E-005                            
   147089.70000000001       -1.6995250000000000E-004                            
   41661.519999999997       -7.1713690000000004E-004                            
   13590.770000000000       -2.6036250000000000E-003                            
   4905.7500000000000       -8.3991090000000001E-003                            
   1912.7460000000001       -2.4341089999999999E-002                            
   792.60429999999997       -6.2519480000000002E-002                            
   344.80650000000003      -0.13659289999999999                                 
   155.89990000000000      -0.23127070000000000                                 
   72.230909999999994      -0.23837340000000001                                 
   32.725059999999999        3.1238370000000001E-002                            
   15.667619999999999       0.50868179999999996                                 
   7.5034830000000001       0.49876949999999998                                 
   3.3122229999999999        9.0335520000000002E-002                            
   1.5584709999999999       -6.0053370000000003E-003                            
  0.68391400000000002        2.3124539999999999E-004                            
  0.14675700000000000       -5.6436799999999999E-004                            
   7.0583000000000007E-002   4.9922599999999997E-004                            
   3.1448999999999998E-002  -1.0152930000000000E-004                            
s  20 1.00
   4316265.0000000000        9.5321780000000002E-007                            
   646342.40000000002        7.4146049999999996E-006                            
   147089.70000000001        3.8983930000000000E-005                            
   41661.519999999997        1.6471520000000000E-004                            
   13590.770000000000        5.9859799999999999E-004                            
   4905.7500000000000        1.9423900000000000E-003                            
   1912.7460000000001        5.6872370000000004E-003                            
   792.60429999999997        1.5013290000000000E-002                            
   344.80650000000003        3.4524550000000001E-002                            
   155.89990000000000        6.4958199999999994E-002                            
   72.230909999999994        7.7161939999999998E-002                            
   32.725059999999999       -1.8734110000000002E-002                            
   15.667619999999999      -0.30091849999999998                                 
   7.5034830000000001      -0.45546609999999998                                 
   3.3122229999999999       0.12864629999999999                                 
   1.5584709999999999       0.71833159999999996                                 
  0.68391400000000002       0.40517429999999999                                 
  0.14675700000000000        2.1682270000000000E-002                            
   7.0583000000000007E-002  -8.3435660000000002E-003                            
   3.1448999999999998E-002   3.6589790000000001E-003                            
s  20 1.00
   4316265.0000000000       -2.0630080000000000E-007                            
   646342.40000000002       -1.6041690000000000E-006                            
   147089.70000000001       -8.4384369999999999E-006                            
   41661.519999999997       -3.5631510000000000E-005                            
   13590.770000000000       -1.2959979999999999E-004                            
   4905.7500000000000       -4.2015340000000001E-004                            
   1912.7460000000001       -1.2319539999999999E-003                            
   792.60429999999997       -3.2489220000000000E-003                            
   344.80650000000003       -7.4937170000000004E-003                            
   155.89990000000000       -1.4101020000000001E-002                            
   72.230909999999994       -1.6916000000000000E-002                            
   32.725059999999999        4.2189960000000000E-003                            
   15.667619999999999        6.8338099999999999E-002                            
   7.5034830000000001       0.10982010000000000                                 
   3.3122229999999999       -4.0090050000000002E-002                            
   1.5584709999999999      -0.21747390000000000                                 
  0.68391400000000002      -0.24651350000000000                                 
  0.14675700000000000       0.27314349999999998                                 
   7.0583000000000007E-002  0.57483209999999996                                 
   3.1448999999999998E-002  0.30127130000000002                                 
s  20 1.00
   4316265.0000000000       -4.0093669999999998E-007                            
   646342.40000000002       -3.1892549999999999E-006                            
   147089.70000000001       -1.6230790000000000E-005                            
   41661.519999999997       -7.1579200000000001E-005                            
   13590.770000000000       -2.4639580000000000E-004                            
   4905.7500000000000       -8.5449069999999998E-004                            
   1912.7460000000001       -2.3075930000000001E-003                            
   792.60429999999997       -6.7282920000000003E-003                            
   344.80650000000003       -1.3661649999999999E-002                            
   155.89990000000000       -3.0622400000000001E-002                            
   72.230909999999994       -2.6311370000000001E-002                            
   32.725059999999999       -9.7601830000000004E-003                            
   15.667619999999999       0.18019060000000001                                 
   7.5034830000000001       0.15296340000000000                                 
   3.3122229999999999        5.5054130000000000E-002                            
   1.5584709999999999      -0.95513640000000000                                 
  0.68391400000000002       0.25868130000000000                                 
  0.14675700000000000        1.8340490000000000                                 
   7.0583000000000007E-002 -0.93332400000000004                                 
   3.1448999999999998E-002 -0.69816049999999996                                 
s  20 1.00
   4316265.0000000000        0.0000000000000000                                 
   646342.40000000002        0.0000000000000000                                 
   147089.70000000001        0.0000000000000000                                 
   41661.519999999997        0.0000000000000000                                 
   13590.770000000000        0.0000000000000000                                 
   4905.7500000000000        0.0000000000000000                                 
   1912.7460000000001        0.0000000000000000                                 
   792.60429999999997        0.0000000000000000                                 
   344.80650000000003        0.0000000000000000                                 
   155.89990000000000        0.0000000000000000                                 
   72.230909999999994        0.0000000000000000                                 
   32.725059999999999        0.0000000000000000                                 
   15.667619999999999        0.0000000000000000                                 
   7.5034830000000001        0.0000000000000000                                 
   3.3122229999999999        0.0000000000000000                                 
   1.5584709999999999        0.0000000000000000                                 
  0.68391400000000002        0.0000000000000000                                 
  0.14675700000000000        0.0000000000000000                                 
   7.0583000000000007E-002   0.0000000000000000                                 
   3.1448999999999998E-002   1.0000000000000000                                 
p  16 1.00
   17745.689999999999        4.1000000000000000E-005                            
   4200.7209999999995        3.6900000000000002E-004                            
   1364.4290000000001        2.1289999999999998E-003                            
   522.08060000000000        9.3690000000000006E-003                            
   221.45949999999999        3.3097000000000001E-002                            
   100.90960000000000        9.4431000000000001E-002                            
   48.401150000000001       0.20807700000000001                                 
   23.985360000000000       0.33233299999999999                                 
   12.182499999999999       0.33298699999999998                                 
   6.2422979999999999       0.15684300000000001                                 
   3.1109439999999999        2.1548999999999999E-002                            
   1.5099579999999999       -2.0950000000000001E-003                            
  0.71084499999999995       -1.7390000000000001E-003                            
  0.27318999999999999       -2.9999999999999997E-004                            
  0.10423300000000001        2.9000000000000000E-005                            
   3.8290999999999999E-002  -1.1000000000000000E-005                            
p  16 1.00
   17745.689999999999       -1.5000000000000000E-005                            
   4200.7209999999995       -1.2999999999999999E-004                            
   1364.4290000000001       -7.5100000000000004E-004                            
   522.08060000000000       -3.3289999999999999E-003                            
   221.45949999999999       -1.1912000000000001E-002                            
   100.90960000000000       -3.4932999999999999E-002                            
   48.401150000000001       -7.9989000000000005E-002                            
   23.985360000000000      -0.13463600000000001                                 
   12.182499999999999      -0.13859800000000000                                 
   6.2422979999999999        3.0277999999999999E-002                            
   3.1109439999999999       0.33321600000000001                                 
   1.5099579999999999       0.45615299999999998                                 
  0.71084499999999995       0.28505100000000000                                 
  0.27318999999999999        4.6143999999999998E-002                            
  0.10423300000000001       -3.2490000000000002E-003                            
   3.8290999999999999E-002   1.3569999999999999E-003                            
p  16 1.00
   17745.689999999999        5.0000000000000004E-006                            
   4200.7209999999995        4.1999999999999998E-005                            
   1364.4290000000001        2.4100000000000000E-004                            
   522.08060000000000        1.0850000000000000E-003                            
   221.45949999999999        3.8310000000000002E-003                            
   100.90960000000000        1.1423000000000001E-002                            
   48.401150000000001        2.5791999999999999E-002                            
   23.985360000000000        4.4817999999999997E-002                            
   12.182499999999999        4.4597999999999999E-002                            
   6.2422979999999999       -1.1176999999999999E-002                            
   3.1109439999999999      -0.13813400000000001                                 
   1.5099579999999999      -0.18828500000000001                                 
  0.71084499999999995      -0.10739899999999999                                 
  0.27318999999999999       0.44486300000000001                                 
  0.10423300000000001       0.64023900000000000                                 
   3.8290999999999999E-002   6.4457000000000000E-002                            
p  16 1.00
   17745.689999999999        3.0000000000000001E-006                            
   4200.7209999999995        2.9000000000000000E-005                            
   1364.4290000000001        1.6500000000000000E-004                            
   522.08060000000000        7.3399999999999995E-004                            
   221.45949999999999        2.6259999999999999E-003                            
   100.90960000000000        7.7250000000000001E-003                            
   48.401150000000001        1.7732999999999999E-002                            
   23.985360000000000        3.0054999999999998E-002                            
   12.182499999999999        3.1094000000000000E-002                            
   6.2422979999999999       -1.0048000000000000E-002                            
   3.1109439999999999       -8.8305999999999996E-002                            
   1.5099579999999999      -0.12982399999999999                                 
  0.71084499999999995       -7.6937000000000005E-002                            
  0.27318999999999999       0.21266099999999999                                 
  0.10423300000000001       0.57306100000000004                                 
   3.8290999999999999E-002  0.36965100000000001                                 
p  16 1.00
   17745.689999999999        0.0000000000000000                                 
   4200.7209999999995        0.0000000000000000                                 
   1364.4290000000001        0.0000000000000000                                 
   522.08060000000000        0.0000000000000000                                 
   221.45949999999999        0.0000000000000000                                 
   100.90960000000000        0.0000000000000000                                 
   48.401150000000001        0.0000000000000000                                 
   23.985360000000000        0.0000000000000000                                 
   12.182499999999999        0.0000000000000000                                 
   6.2422979999999999        0.0000000000000000                                 
   3.1109439999999999        0.0000000000000000                                 
   1.5099579999999999        0.0000000000000000                                 
  0.71084499999999995        0.0000000000000000                                 
  0.27318999999999999        0.0000000000000000                                 
  0.10423300000000001        0.0000000000000000                                 
   3.8290999999999999E-002   1.0000000000000000                                 
d   8 1.00
   113.34399999999999        3.5300000000000002E-003                            
   33.641399999999997        2.5784000000000001E-002                            
   12.331000000000000        9.9118999999999999E-002                            
   4.9947800000000004       0.23907300000000001                                 
   2.0728000000000000       0.35719899999999999                                 
  0.83075299999999996       0.36218800000000001                                 
  0.30917800000000001       0.23646100000000000                                 
  0.10013000000000000        6.0117999999999998E-002                            
d   8 1.00
   113.34399999999999       -3.8899999999999998E-003                            
   33.641399999999997       -2.8441999999999999E-002                            
   12.331000000000000      -0.11242900000000000                                 
   4.9947800000000004      -0.27425699999999997                                 
   2.0728000000000000      -0.31554599999999999                                 
  0.83075299999999996        5.7109000000000000E-002                            
  0.30917800000000001       0.56360399999999999                                 
  0.10013000000000000       0.38463700000000001                                 
d   8 1.00
   113.34399999999999        0.0000000000000000                                 
   33.641399999999997        0.0000000000000000                                 
   12.331000000000000        0.0000000000000000                                 
   4.9947800000000004        0.0000000000000000                                 
   2.0728000000000000        0.0000000000000000                                 
  0.83075299999999996        0.0000000000000000                                 
  0.30917800000000001        0.0000000000000000                                 
  0.10013000000000000        1.0000000000000000                                 
f   2 1.00
   3.2242999999999999       0.42224899999999999                                 
  0.77580000000000005       0.77146800000000004                                 

  2 0
s   9 1.00
   6665.0000000000000        6.9200000000000002E-004                            
   1000.0000000000000        5.3290000000000004E-003                            
   228.00000000000000        2.7077000000000000E-002                            
   64.709999999999994       0.10171800000000000                                 
   21.059999999999999       0.27473999999999998                                 
   7.4950000000000001       0.44856400000000002                                 
   2.7970000000000002       0.28507399999999999                                 
  0.52149999999999996        1.5204000000000001E-002                            
  0.15959999999999999       -3.1909999999999998E-003                            
s   9 1.00
   6665.0000000000000       -1.4600000000000000E-004                            
   1000.0000000000000       -1.1540000000000001E-003                            
   228.00000000000000       -5.7250000000000001E-003                            
   64.709999999999994       -2.3311999999999999E-002                            
   21.059999999999999       -6.3954999999999998E-002                            
   7.4950000000000001      -0.14998100000000000                                 
   2.7970000000000002      -0.12726199999999999                                 
  0.52149999999999996       0.54452900000000004                                 
  0.15959999999999999       0.58049600000000001                                 
s   9 1.00
   6665.0000000000000        0.0000000000000000                                 
   1000.0000000000000        0.0000000000000000                                 
   228.00000000000000        0.0000000000000000                                 
   64.709999999999994        0.0000000000000000                                 
   21.059999999999999        0.0000000000000000                                 
   7.4950000000000001        0.0000000000000000                                 
   2.7970000000000002        0.0000000000000000                                 
  0.52149999999999996        0.0000000000000000                                 
  0.15959999999999999        1.0000000000000000                                 
p   4 1.00
   9.4390000000000001        3.8108999999999997E-002                            
   2.0019999999999998       0.20948000000000000                                 
  0.54559999999999997       0.50855700000000004                                 
  0.15170000000000000       0.46884199999999998                                 
p   4 1.00
   9.4390000000000001        0.0000000000000000                                 
   2.0019999999999998        0.0000000000000000                                 
  0.54559999999999997        0.0000000000000000                                 
  0.15170000000000000        1.0000000000000000                                 
d   1 1.00
  0.55000000000000004        1.0000000000000000                                 

  3 0
s   9 1.00
   6665.0000000000000        6.9200000000000002E-004                            
   1000.0000000000000        5.3290000000000004E-003                            
   228.00000000000000        2.7077000000000000E-002                            
   64.709999999999994       0.10171800000000000                                 
   21.059999999999999       0.27473999999999998                                 
   7.4950000000000001       0.44856400000000002                                 
   2.7970000000000002       0.28507399999999999                                 
  0.52149999999999996        1.5204000000000001E-002                            
  0.15959999999999999       -3.1909999999999998E-003                            
s   9 1.00
   6665.0000000000000       -1.4600000000000000E-004                            
   1000.0000000000000       -1.1540000000000001E-003                            
   228.00000000000000       -5.7250000000000001E-003                            
   64.709999999999994       -2.3311999999999999E-002                            
   21.059999999999999       -6.3954999999999998E-002                            
   7.4950000000000001      -0.14998100000000000                                 
   2.7970000000000002      -0.12726199999999999                                 
  0.52149999999999996       0.54452900000000004                                 
  0.15959999999999999       0.58049600000000001                                 
s   9 1.00
   6665.0000000000000        0.0000000000000000                                 
   1000.0000000000000        0.0000000000000000                                 
   228.00000000000000        0.0000000000000000                                 
   64.709999999999994        0.0000000000000000                                 
   21.059999999999999        0.0000000000000000                                 
   7.4950000000000001        0.0000000000000000                                 
   2.7970000000000002        0.0000000000000000                                 
  0.52149999999999996        0.0000000000000000                                 
  0.15959999999999999        1.0000000000000000                                 
p   4 1.00
   9.4390000000000001        3.8108999999999997E-002                            
   2.0019999999999998       0.20948000000000000                                 
  0.54559999999999997       0.50855700000000004                                 
  0.15170000000000000       0.46884199999999998                                 
p   4 1.00
   9.4390000000000001        0.0000000000000000                                 
   2.0019999999999998        0.0000000000000000                                 
  0.54559999999999997        0.0000000000000000                                 
  0.15170000000000000        1.0000000000000000                                 
d   1 1.00
  0.55000000000000004        1.0000000000000000                                 

  4 0
s   9 1.00
   6665.0000000000000        6.9200000000000002E-004                            
   1000.0000000000000        5.3290000000000004E-003                            
   228.00000000000000        2.7077000000000000E-002                            
   64.709999999999994       0.10171800000000000                                 
   21.059999999999999       0.27473999999999998                                 
   7.4950000000000001       0.44856400000000002                                 
   2.7970000000000002       0.28507399999999999                                 
  0.52149999999999996        1.5204000000000001E-002                            
  0.15959999999999999       -3.1909999999999998E-003                            
s   9 1.00
   6665.0000000000000       -1.4600000000000000E-004                            
   1000.0000000000000       -1.1540000000000001E-003                            
   228.00000000000000       -5.7250000000000001E-003                            
   64.709999999999994       -2.3311999999999999E-002                            
   21.059999999999999       -6.3954999999999998E-002                            
   7.4950000000000001      -0.14998100000000000                                 
   2.7970000000000002      -0.12726199999999999                                 
  0.52149999999999996       0.54452900000000004                                 
  0.15959999999999999       0.58049600000000001                                 
s   9 1.00
   6665.0000000000000        0.0000000000000000                                 
   1000.0000000000000        0.0000000000000000                                 
   228.00000000000000        0.0000000000000000                                 
   64.709999999999994        0.0000000000000000                                 
   21.059999999999999        0.0000000000000000                                 
   7.4950000000000001        0.0000000000000000                                 
   2.7970000000000002        0.0000000000000000                                 
  0.52149999999999996        0.0000000000000000                                 
  0.15959999999999999        1.0000000000000000                                 
p   4 1.00
   9.4390000000000001        3.8108999999999997E-002                            
   2.0019999999999998       0.20948000000000000                                 
  0.54559999999999997       0.50855700000000004                                 
  0.15170000000000000       0.46884199999999998                                 
p   4 1.00
   9.4390000000000001        0.0000000000000000                                 
   2.0019999999999998        0.0000000000000000                                 
  0.54559999999999997        0.0000000000000000                                 
  0.15170000000000000        1.0000000000000000                                 
d   1 1.00
  0.55000000000000004        1.0000000000000000                                 

  5 0
s   9 1.00
   6665.0000000000000        6.9200000000000002E-004                            
   1000.0000000000000        5.3290000000000004E-003                            
   228.00000000000000        2.7077000000000000E-002                            
   64.709999999999994       0.10171800000000000                                 
   21.059999999999999       0.27473999999999998                                 
   7.4950000000000001       0.44856400000000002                                 
   2.7970000000000002       0.28507399999999999                                 
  0.52149999999999996        1.5204000000000001E-002                            
  0.15959999999999999       -3.1909999999999998E-003                            
s   9 1.00
   6665.0000000000000       -1.4600000000000000E-004                            
   1000.0000000000000       -1.1540000000000001E-003                            
   228.00000000000000       -5.7250000000000001E-003                            
   64.709999999999994       -2.3311999999999999E-002                            
   21.059999999999999       -6.3954999999999998E-002                            
   7.4950000000000001      -0.14998100000000000                                 
   2.7970000000000002      -0.12726199999999999                                 
  0.52149999999999996       0.54452900000000004                                 
  0.15959999999999999       0.58049600000000001                                 
s   9 1.00