 **********************************************************************
                          MRCC program system
 **********************************************************************
 
                              Written by
     Mihaly Kallay, Peter R. Nagy, David Mester, Laszlo Gyevi-Nagy,
        Jozsef Csoka, P. Bernat Szabo, Zoltan Rolik, Gyula Samu,
     Jozsef Csontos, Bence Hegely, Adam Ganyecz, Istvan Ladjanszki,
       Lorant Szegedy, Bence Ladoczki, Klara Petrov, Mate Farkas,
                    Pal D. Mezei, and Reka A. Horvath
 
        Department of Physical Chemistry and Materials Science
            Budapest University of Technology and Economics
                  Budapest P.O.Box 91, H-1521 Hungary
 
                              www.mrcc.hu
 
                     Release date: August 28, 2023

 ************************ 2025-11-22 05:37:29 *************************
 Executing minp...

 Reading input from MINP...
 
 Input file:
 
# TITLE
verbosity=3
tprint=0

basis=STO-3G-EMSL
uncontract=off
#iface=cfour
itol=18
scftol=10
cctol=7
calc=FCI
mem=2GB
core=corr
ccmaxit=999
scfmaxit=9999
scftype=RHF

scfiguess=ao
rohftype=standard
mult=1
charge=+0
rest=2

unit=angs
geom=xyz
2

H -1.392024723099 0.0 0.0
H  1.392024723099 0.0 0.0


 
 
 Checking keyword combinations...
 
 Keywords:
 
 active=none
 agrid=ld0006-ld0590
 agrid_pssp=ld0006-ld0194
 agrid_pssp_sm=ld0006-ld0074
 basis=sto-3g-emsl
 basis_sm=none
 basopt=off
 bfbasis=none
 bfgsmem=10
 bfgstol=1.0d-3
 boysalg=jacobi
 bpcompo=0.985
 bpcompv=0.98
 bpdfo=0.985
 bpocc=0.985
 bppdo=0.985
 bppdv=0.98
 bpedo=0.985
 bpedv=0.98
 calc=fci
 ccmaxit=999
 ccprog=mrcc
 ccsdalg=disk
 ccsdmkl=seq
 ccsdrest=off
 ccsdthreads=2
 cctol=7
 charge=+0
 cialg=disk
 ciguess=off
 cmpgrp=auto
 comprest=off
 coord_sys=ric
 core=corr
 corembed=off
 csapprox=off
 cvs=off
 dboc=off
 delocsomofact=
 dendec=cholesky
 dens=0
 denscorr=0
 dfalg=lineq
 dfbasis_cab=none
 dfbasis_cor=none
 dfbasis_scf=none
 dfbasis_scf_sm=none
 dfintran=ovirt
 dft=off
 dhexc=adc(2)
 diag=david
 docc=
 domrad=10.d0
 drpaalg=fit
 dual=off
 dual_df=off
 ecp=auto
 edisp=off
 edisp_embed=off
 embed=off
 epairestfact=off
 epairscale=1.d0
 etemp=300
 epert=none
 eps=
 espcharge=off
 excrad=0.d0
 excrad_fin=0.000000000D+00
 fitting=coulomb
 fmm=off
 fmmord=8
 fnonorb=
 freq=off
 gamma=1.d0
 gauss=spher
 geom=xyz
 gopt=off
 ghost=none
 gtol=7
 grdens=off
 grid=auto
 grid_sm=auto
 gridbatch_cos=2000
 grtol=10
 guido_ct=off
 hamilton=dc
 iface=none
 intalg=auto
 ip_ea=off
 itol=18
 laptol=1.d-2
 lccoporder=trffirst
 lcorthr=normal
 lccrest=off
 ldfgrad_tol=8
 lmp2dens=on
 lnoepso=0.d0
 lnoepsv=1e-6
 localcc=off
 localcorrsymm=off
 locintrf=disk
 mact=
 maxact=off
 maxdim=200
 maxex=0
 maxmicroit=100
 mcscfiguess=hf
 mem=2gb
 mmprog=
 molden=on
 mpitasks=1
 mulmet=0
 mult=1
 nab=off
 nacto=0
 nactv=0
 naf_amp=3.16d-3
 naf_cor=off
 naf_f12=off
 naf_scf=off
 nafalg=albe
 nafdens=off
 naftyp=
 nchol=auto
 ndeps=1e-3
 nstate=1
 nsing=0
 nto=off
 ntrip=0
 num_grad=off
 occ=
 occri=off
 oniom=off
 oniom_eechg=off
 oniom_pcm=off
 oniom_qcorr=off
 optalg=
 optmaxit=50
 optetol=1e-6
 optex=0
 optgtol=1e-4
 optstol=1e-3
 orblocc=off
 orbloce=off
 orbloco=off
 orblocv=off
 orblocguess=cholesky
 osveps=1e-3
 ovirt=off
 ovltol=1e-7
 ovosnorb=80.0
 pao_subsys_tol=1e-3
 pcm=off
 popul=off
 pressure=100000
 pssp=off
 ptfreq=0.0
 ptthreads=2
 qmreg=
 qmmm=off
 qro=off
 qscf=off
 redcost_exc=off
 redcost_tddft=off
 refdet=none
 rest=2
 rgrid=log3
 rism=off
 rohfcore=semicanonical
 rohftype=standard
 scfalg=auto
 scf_conv=auto
 scfdamp=0.0d0
 scfdamp_mode=off
 scfdamp_end=9999
 scfdamp_dampstep=0.d0
 scfdamp_dtol=0.0d0
 scfdamp_maxfact=0.0d0
 scfdamp_minfact=0.0d0
 scfdiis=on
 scfdiis_dtol=0.0d0
 scfdiis_end=9999
 scfdiis_start=2
 scfdiis_step=1
 scfdiis_watch=off
 scfdiis_wrange=10
 scfdiis_wlimit=5
 scfdiis_delmax=2
 scfdtol=11
 scfext=10
 scfguessdens=
 scfiguess=ao
 scfloc=off
 scflshift=0.20
 scflshift_end=8
 scflshift_dtol=0.0
 scflshift_gaptol=0.20
 scfmaxit=9999
 scftype=rhf
 scftol=10
 scspe=1.d0
 scsph=1.d0
 scsps=1.2d0
 scsps_t=1.2d0
 scspt=0.33333333333333
 scspt_t=0.33333333333333
 scspv=1.d0
 spairtol=1e-4
 sqmprog=
 subminp=top
 symm=
 talg=occ
 temp=298.15
 test=off
 theodore=off
 tlmo=0.999
 tpao=0.94
 tprint=0
 uncontract=off
 unit=angs
 usedisk=2
 verbosity=3
 wpairtol=0.100000000E-05

 ************************ 2025-11-22 05:37:30 *************************
 Executing integ...

 Allocation of 2048.0 Mbytes of memory...
 
 
 Number of atoms:                  2
 Charge:                           0
 Number of electrons:              2
 Number of core electrons:         0
 Spin multiplicity:                1
 
                 Cartesian coordinates [bohr]      Atomic mass [AMU]  Z
   1  H    -2.63054549    0.00000000    0.00000000     1.007825       1
   2  H     2.63054549    0.00000000    0.00000000     1.007825       1
 
 This molecule is linear.
 
 Rotational constants [cm-1]: 
      4.316059888296
 
 Point group: Dxh 
 Computational point group: D2h 
 
 Cartesian coordinates in standard orientation [bohr]
   1  H     0.00000000    0.00000000   -2.63054549
   2  H     0.00000000    0.00000000    2.63054549
 
 Nuclear repulsion energy [au]:          0.190074645187
 
 
 Basis set information:
 
 Maximum angular momentum: s
 Maximum number of contracted Gaussians:    1
 Maximum number of primitive Gaussians:     3
 Spherical harmonic GTOs are used.
 
   1  H  sto-3g-emsl [ 3s | 1s ]
   2  H  sto-3g-emsl [ 3s | 1s ]
 
 Basis functions:
            1             2             3             4             5             6             7             8             9            10
    0    1H1s          2H1s      
 
 Maximum number of basis functions per shell:    1
 Total number of basis functions:      2
 
 
 Character table for point group D2h:
 
          E  C2z C2y C2x  i  Qxy Qxz Qyz 
    Ag    1   1   1   1   1   1   1   1
    B1g   1   1  -1  -1   1   1  -1  -1
    B2g   1  -1   1  -1   1  -1   1  -1
    B3g   1  -1  -1   1   1  -1  -1   1
    Au    1   1   1   1  -1  -1  -1  -1
    B1u   1   1  -1  -1  -1  -1   1   1
    B2u   1  -1   1  -1  -1   1  -1   1
    B3u   1  -1  -1   1  -1   1   1  -1
 
 Number of basis functions per irrep:
    Ag      1
    B1g     0
    B2g     0
    B3g     0
    Au      0
    B1u     1
    B2u     0
    B3u     0
 
 
 Calculation of overlap integrals...
 CPU time [min]:     0.034                   Wall time [min]:     0.013
 
 Calculation of the square root of the overlap matrix...
 Minimum eigenvalue of the overlap matrix: 0.971494E+00
 CPU time [min]:     0.055                   Wall time [min]:     0.016
 
 Calculation of kinetic energy integrals...
 CPU time [min]:     0.056                   Wall time [min]:     0.016
 Calculation of nuclear attraction integrals...
 CPU time [min]:     0.056                   Wall time [min]:     0.016
 
 Calculation of prescreening integrals...
 CPU time [min]:     0.058                   Wall time [min]:     0.016
 
 Calculation of two-electron integrals...
  17% done.
 100% done.
 CPU time [min]:     0.075                   Wall time [min]:     0.019

 ************************ 2025-11-22 05:37:31 *************************
 Executing scf...

 @scfsetup: integrals taken from disk
            mrcc/integ binary format
 @scfsetup: calc on blockdiagonal matrices
            using symmetry adapted basis
 @scfsetup: diis switched on
 @scfsetup: number of steps to extrapolate from  10
 @scfsetup: tolerance in energy deviation    0.100000E-09
            tolerance in density deviation    0.100000E-10
 @scfsetup: maximum number of iterations:9999
 @scfsetup: restricted closed shell hf calc
 @scfsetup: starting scf from diagonal ao guess
 @scfsetup: occupation set:
            from initial orbitals
 @scfsetup: Parameter-set for SCF acceleration: normal
 @scfsetup: diis runs from iteration:   2
 @scfsetup: diis runs to iteration:9999
 @scfsetup: diis runs in every iteration
 @scfsetup: diiswatch is disabled                   
 @scfsetup: diis dtol criteria to switch on:      0.0000E+00
           (or the iteration number below is reached)
 @scfsetup: static damping scheme
            iteration step criteria to turn damping off: 3
 @scfsetup: dynamic level shifting
            tolarance in HOMO-LUMO gap:  0.200
            tolarance in density deviation:     0.0000E+00
            iteration step criteria to turn level shifting off: 8
 Allocation of 2048.0 Mbytes of memory...
 ======================================================================
 ITERATION STEP   1
 CPU time [min]:     0.004                   Wall time [min]:     0.013
 

 SCF control                  : initial
 Damping factor/level shift   : 0.000/0.200
 DIIS [start/end/frequency]   :   2 /*** /  1

 Gradient norm:      4.0044E-01
 RMS of [F,P]:                                         0.00000000000000
 RMS of difference density:                            0.97267862743347
 Gap [au]:  0.03867235
 ALPHA OCC:   1   0   0   0   0   0   0   0
 BETA  OCC:   1   0   0   0   0   0   0   0
 
 ***HARTREE-FOCK ENERGY IN STEP   1 IS         -0.5460777478643805 [AU]
 ======================================================================
 ITERATION STEP   2
 CPU time [min]:     0.005                   Wall time [min]:     0.014
 

 SCF control                  : diis
 Damping factor/level shift   : 0.000/0.200
 DIIS [start/end/frequency]   :   2 /*** /  1

 Gradient norm:      6.1295E-02
 DIIS is running in this iteration step.
 RMS of [F,P]:                                         0.00000000000000
 RMS of difference density:                            0.00000000000000
 Gap [au]:  0.22278043
 ALPHA OCC:   1   0   0   0   0   0   0   0
 BETA  OCC:   1   0   0   0   0   0   0   0
 
 ***HARTREE-FOCK ENERGY IN STEP   2 IS         -0.6730775948668628 [AU]
 
 Step comparison  Energy Drift [au]  DIIS error drift  Gradient drift
        1            1.2700E-01         0.0000E+00       3.3915E-01
        2            6.7308E-01         1.0000E-11       3.3915E-01
 ======================================================================
 ITERATION STEP   3
 CPU time [min]:     0.005                   Wall time [min]:     0.016
 

 SCF control                  : diis
 Damping factor/level shift   : 0.000/0.000
 DIIS [start/end/frequency]   :   2 /*** /  1

 Gradient norm:      0.0000E+00
 DIIS is running in this iteration step.
 RMS of [F,P]:                                         0.00000000000000
 RMS of difference density:                            0.00000000000000
 Gap [au]:  0.22278043
 ALPHA OCC:   1   0   0   0   0   0   0   0
 BETA  OCC:   1   0   0   0   0   0   0   0
 
 ***HARTREE-FOCK ENERGY IN STEP   3 IS         -0.6730775948668628 [AU]
 
 Step comparison  Energy Drift [au]  DIIS error drift  Gradient drift
        2            0.0000E+00         0.0000E+00       6.1295E-02
 Warning! The energy goes uphill (with respect to previous step).
 ======================================================================
 
 SUCCESS...
 THE SCF ITERATION HAS CONVERGED!
 
                   Ag  B1g B2g B3g Au  B1u B2u B3u 
 FINAL ALPHA OCC:   1   0   0   0   0   0   0   0
 FINAL BETA  OCC:   1   0   0   0   0   0   0   0
 
 ***FINAL HARTREE-FOCK ENERGY:         -0.6730775948668628 [AU]
 
 Orbital energies [au]:
      Irrep         Alpha          Beta
    1   Ag        -0.193162      -0.193162
 
    2   B1u        0.029619       0.029619
 
 RETURNING FROM SCF ALGORITHM
 ======================================================================

 ************************ 2025-11-22 05:37:33 *************************
 Executing ovirt...

 ovirt, the routine of orbital optimization and integral transformation 
Sat Nov 22 05:37:33 EST 2025
 memory =                   2048  Mb             268435456  8 byte word
 mrccboot = T
 scftype  = rhf  
 localcc  = off 
 core     = corr  
 ovirt    = off  
 ccprog   = mrcc
 dfnbasis =                      0
 dfbasis_cor =none                
 lmp2dens = on 
 dens =                      0
 verblev =                      3
 task     =                      4
 epsilon =   0.000000000000000E+000
 lmp2= on 
 localNO  =  F
 localMP2 =  F
 localMP2_TEST =  F
 LMP2_shortcut =  F
 FOCKTR   =  T
 Allocated memory:                    2048  Mb
 onbasis=                     2
 RHF calculation! 
 integral transforamtion: AOs ------ MOs
 # of basis functions, # of int. blocks     2     1
100 % 
 second part
100 %
 integral transformation is completed! 
CPU and WC time           0.01           0.08     AOs -> MOs 
 occupied and 
     1 -0.1931617534
               virtual energies 
     2  0.0296186778
 inttol =   1.000000000000000E-018   18.0000000000000     
Integrals are written to fort.55
Sat Nov 22 05:37:33 EST 2025
  ovirt terminated normally 

 ************************ 2025-11-22 05:37:34 *************************
 Executing goldstone...

 Generation of CI equations in terms of H and C...
 Generation of antisymmetrized Goldstone diagrams...
 Number of diagrams in T^1 equations:     7
 Number of diagrams in T^2 equations:     8
 Translation of diagrams to factorized equations...
 Optimizing intermediate calculation...
 Number of floating-point operations per iteration step:   9.4531E-01
 Probable CPU time per iteration step (hours):      0.00
 Required memory (Mbytes):       0.0
 Number of intermediates:                                  26
 Number of intermediates to be stored:                     11
 Length of intermediate file (Mbytes):       0.0

 ************************ 2025-11-22 05:37:35 *************************
 Executing xmrcc...

 **********************************************************************
 CI(                     2 ) calculation 
 
 
 Allocation of2048.0 Mbytes of memory...
 Number of spinorbitals:                     4
 Number of alpha electrons:                        1
 Number of beta electrons:                         1
 Spin multiplicity:                     1
 z-component of spin:  0.0
 Spatial symmetry:                      1
 Convergence criterion:  1.0E-07
 Construction of occupation graphs...
 Number of                     0 -fold excitations:                      1
 Number of                     1 -fold excitations:                      0
 Number of                     2 -fold excitations:                      1
 Total number of configurations:                      2
 Calculation of coupling coefficients...
 Length of intermediate file (Mbytes):       0.1
 
 ======================================================================
 
 Memory requirements /Mbyte/: 
               Minimal        Optimal
 Real*8:          0.0576         0.0576
 Integer:         3.2833
 Total:           3.3410         3.3410
 

 ************************ 2025-11-22 05:37:36 *************************
 Executing goldstone...

 Generation of CI equations in terms of H and C...
 Generation of antisymmetrized Goldstone diagrams...
 Number of diagrams in T^1 equations:     7
 Number of diagrams in T^2 equations:     8
 Translation of diagrams to factorized equations...
 Optimizing intermediate calculation...
 Number of floating-point operations per iteration step:   9.4531E-01
 Probable CPU time per iteration step (hours):      0.00
 Required memory (Mbytes):       0.0
 Number of intermediates:                                  26
 Number of intermediates to be stored:                     11
 Length of intermediate file (Mbytes):       0.0

 ************************ 2025-11-22 05:37:37 *************************
 Executing xmrcc...

 **********************************************************************
 CI(                     2 ) calculation 
 
 
 Allocation of2048.0 Mbytes of memory...
 Number of spinorbitals:                     4
 Number of alpha electrons:                        1
 Number of beta electrons:                         1
 Spin multiplicity:                     1
 z-component of spin:  0.0
 Spatial symmetry:                      1
 Convergence criterion:  1.0E-07
 Construction of occupation graphs...
 Number of                     0 -fold excitations:                      1
 Number of                     1 -fold excitations:                      0
 Number of                     2 -fold excitations:                      1
 Total number of configurations:                      2
 Calculation of coupling coefficients...
 Length of intermediate file (Mbytes):       0.1
 
 ======================================================================
 
 Memory requirements /Mbyte/: 
               Minimal        Optimal
 Real*8:          0.0576         0.0576
 Integer:         3.2833
 Total:           3.3410         3.3410
 

 ************************ 2025-11-22 05:37:38 *************************
 Executing mrcc...

 **********************************************************************
 CISD calculation                                                       
 
 
 OpenMP parallel version is running.
 Number of CPU cores:  32
 Allocation of    0.1 Mbytes of memory...
 Number of spinorbitals:   4
 Number of alpha electrons:  1
 Number of beta  electrons:  1
 Spin multiplicity: 1
 z-component of spin:  0.0
 Spatial symmetry: 1
 Convergence criterion:  1.0E-07
 Construction of occupation graphs...
 Number of 0-fold excitations: 1
 Number of 1-fold excitations: 0
 Number of 2-fold excitations: 1
 Total number of determinants: 2
 Calculation of coupling coefficients...
 Initial cluster amplitudes are generated.
 Length of intermediate file (Mbytes):       0.1
 Reading integral list from unit 55...
 Sorting integrals...
 Calculation of diagonal elements of Hamiltonian...
 
 Starting CI iteration for root                      1 ...
 ======================================================================
 Norm of residual vector:     0.29251711      Convergence:   1.00000000
 CPU time [min]:     0.070                   Wall time [min]:     0.012
 
 Iteration  1  CI energy:    -0.67307759  Energy decrease:   0.0000E+00
 ======================================================================
 Norm of residual vector:     0.0000E+00      Convergence:   6.6595E-01
 CPU time [min]:     0.071                   Wall time [min]:     0.012
 
 Iteration  2  CI energy:    -0.93421056  Energy decrease:   0.26113296
 ======================================================================
 
 Iteration has converged in  2 steps.
 
 Final results:
 Total CISD energy [au]:                       -0.934210559397
 
 Dominant CI coefficients
 Printing threshold:  0.00E+00
 
   -0.745992  Reference determinant                                     
    0.665955  1a 1b -> 2a 2b                                            
 
 ************************ 2025-11-22 05:37:39 *************************
                      Normal termination of mrcc.
 **********************************************************************
