
     Program BANDS v.6.7MaX starts on 21Apr2024 at 10: 8:50 

     This program is part of the open-source Quantum ESPRESSO suite
     for quantum simulation of materials; please cite
         "P. Giannozzi et al., J. Phys.:Condens. Matter 21 395502 (2009);
         "P. Giannozzi et al., J. Phys.:Condens. Matter 29 465901 (2017);
          URL http://www.quantum-espresso.org", 
     in publications or presentations arising from this work. More details at
     http://www.quantum-espresso.org/quote

     Parallel version (MPI), running on     1 processors

     MPI processes distributed on     1 nodes

     Reading xml data from directory:

     ../out/aiida.save/
     file Pb.pbe-dn-kjpaw_psl.0.2.2.UPF: wavefunction(s)  6S renormalized

     IMPORTANT: XC functional enforced from input :
     Exchange-correlation= PBE
                           (   1   4   3   4   0   0   0)
     Any further DFT definition will be discarded
     Please, verify this is what you really want


     G-vector sticks info
     --------------------
     sticks:   dense  smooth     PW     G-vecs:    dense   smooth      PW
     Sum        7417    7417   1993               479769   479769   66635


     Check: negative core charge=   -0.000001
     Reading collected, re-writing distributed wavefunctions
     high-symmetry point:  0.0000 0.0000 0.0000   x coordinate   0.0000
     high-symmetry point:  0.0000 0.5000 0.0000   x coordinate   0.5000
     high-symmetry point:  0.5000 0.5000 0.0000   x coordinate   1.0000
     high-symmetry point:  0.0000 0.0000 0.0000   x coordinate   1.7071
     high-symmetry point:  0.5000 0.5000 0.5000   x coordinate   2.5731
     high-symmetry point:  0.0000 0.5000 0.0000   x coordinate   3.2802
     high-symmetry point:  0.5000 0.5000 0.5000   x coordinate   3.2802
     high-symmetry point:  0.5000 0.5000 0.0000   x coordinate   3.7802

     Plottable bands (eV) written to file CsPbI3.bands.gnu
     Bands written to file CsPbI3.bands

 **************************************************************************

                    xk=(   0.00000,   0.00000,   0.00000  )

     point group O_h (m-3m) 
     there are 10 classes
     the character table:

       E     8C3   3C2   6C4   6C2'  i     8S6   3s_h  6S4   6s_d 
A_1g   1.00  1.00  1.00  1.00  1.00  1.00  1.00  1.00  1.00  1.00
A_2g   1.00  1.00  1.00 -1.00 -1.00  1.00  1.00  1.00 -1.00 -1.00
E_g    2.00 -1.00  2.00  0.00  0.00  2.00 -1.00  2.00  0.00  0.00
T_1g   3.00  0.00 -1.00  1.00 -1.00  3.00  0.00 -1.00  1.00 -1.00
T_2g   3.00  0.00 -1.00 -1.00  1.00  3.00  0.00 -1.00 -1.00  1.00
A_1u   1.00  1.00  1.00  1.00  1.00 -1.00 -1.00 -1.00 -1.00 -1.00
A_2u   1.00  1.00  1.00 -1.00 -1.00 -1.00 -1.00 -1.00  1.00  1.00
E_u    2.00 -1.00  2.00  0.00  0.00 -2.00  1.00 -2.00  0.00  0.00
T_1u   3.00  0.00 -1.00  1.00 -1.00 -3.00  0.00  1.00 -1.00  1.00
T_2u   3.00  0.00 -1.00 -1.00  1.00 -3.00  0.00  1.00  1.00 -1.00

     the symmetry operations in each class and the name of the first element:

     E        1
                                                                 
     8C3     17   19   20   18   24   21   22   23
                                                                 
     3C2      2    4    3
                                                                 
     6C4      7    8   15   16   12   11
                                                                 
     6C2'     5    6   14   13   10    9
                                                                 
     i       25
                                                                 
     8S6     41   43   44   42   48   45   46   47
                                                                 
     3s_h    26   28   27
                                                                 
     6S4     31   32   39   40   36   35
                                                                 
     6s_d    29   30   38   37   34   33
                                                                 

     Band symmetry, O_h (m-3m)  point group:

     e(  1 -  1) =    -18.60270  eV     1   --> A_1g G_1   G_1+
     e(  2 -  4) =    -18.60247  eV     3   --> T_1u G_15  G_4-
     e(  5 -  7) =    -18.60225  eV     3   --> T_2g G_25' G_5+
     e(  8 -  8) =    -18.60207  eV     1   --> A_2u G_2'  G_2-
     e(  9 - 13) =    -14.01983  eV     5   --> A_2g G_2   G_2+
     e(  9 - 13) =    -14.01983  eV     5   -->   2 E_g  G_12  G_3+
     e( 14 - 16) =    -14.01447  eV     3   --> A_1g G_1   G_1+
     e( 17 - 19) =    -14.00911  eV     3   --> A_1g G_1   G_1+
     e( 17 - 19) =    -14.00911  eV     3   --> E_g  G_12  G_3+
     e( 20 - 21) =    -14.00365  eV     2   -->   ?
     e( 22 - 24) =    -14.00353  eV     3   -->   ?
     e( 25 - 35) =    -13.96870  eV    11   -->   ?
     e( 36 - 36) =    -13.96813  eV     1   -->   ?

 **************************************************************************

 **************************************************************************

                    xk=(   0.00000,   0.01667,   0.00000  )

     point group C_4v (4mm) 
     there are  5 classes
     the character table:

       E     2C4   C2    2s_v  2s_d 
A_1    1.00  1.00  1.00  1.00  1.00
A_2    1.00  1.00  1.00 -1.00 -1.00
B_1    1.00 -1.00  1.00  1.00 -1.00
B_2    1.00 -1.00  1.00 -1.00  1.00
E      2.00  0.00 -2.00  0.00  0.00

     the symmetry operations in each class and the name of the first element:

     E        1
                                                                 
     2C4      3    4
                                                                 
     C2       2
                                                                 
     2s_v     5    6
                                                                 
     2s_d     7    8
                                                                 

     Band symmetry, C_4v (4mm)  point group:

     e(  1 -  1) =    -18.60270  eV     1   --> A_1  G_1 D_1   
     e(  2 -  4) =    -18.60247  eV     3   --> A_1  G_1 D_1   
     e(  2 -  4) =    -18.60247  eV     3   --> E    G_5 D_5   
     e(  5 -  7) =    -18.60226  eV     3   --> B_2  G_4 D_2'  
     e(  5 -  7) =    -18.60226  eV     3   --> E    G_5 D_5   
     e(  8 -  8) =    -18.60207  eV     1   --> B_2  G_4 D_2'  
     e(  9 - 13) =    -14.01982  eV     5   -->   2 A_1  G_1 D_1   
     e(  9 - 13) =    -14.01982  eV     5   -->   3 B_1  G_3 D_2   
     e( 14 - 16) =    -14.01449  eV     3   -->   2 A_1  G_1 D_1   
     e( 14 - 16) =    -14.01449  eV     3   --> B_1  G_3 D_2   
     e( 17 - 19) =    -14.00910  eV     3   -->   ?
     e( 20 - 24) =    -14.00366  eV     5   -->   ?
     e( 25 - 36) =    -13.96870  eV    12   -->   ?

 **************************************************************************

 **************************************************************************

                    xk=(   0.00000,   0.03333,   0.00000  )

     Band symmetry, C_4v (4mm)  point group:

     e(  1 -  1) =    -18.60270  eV     1   --> A_1  G_1 D_1   
     e(  2 -  4) =    -18.60247  eV     3   --> A_1  G_1 D_1   
     e(  2 -  4) =    -18.60247  eV     3   --> E    G_5 D_5   
     e(  5 -  7) =    -18.60226  eV     3   --> B_2  G_4 D_2'  
     e(  5 -  7) =    -18.60226  eV     3   --> E    G_5 D_5   
     e(  8 -  8) =    -18.60207  eV     1   --> B_2  G_4 D_2'  
     e(  9 - 13) =    -14.01982  eV     5   -->   2 A_1  G_1 D_1   
     e(  9 - 13) =    -14.01982  eV     5   -->   3 B_1  G_3 D_2   
     e( 14 - 16) =    -14.01451  eV     3   -->   2 A_1  G_1 D_1   
     e( 14 - 16) =    -14.01451  eV     3   --> B_1  G_3 D_2   
     e( 17 - 19) =    -14.00912  eV     3   -->   2 A_1  G_1 D_1   
     e( 17 - 19) =    -14.00912  eV     3   --> B_1  G_3 D_2   
     e( 20 - 24) =    -14.00368  eV     5   -->   2 A_1  G_1 D_1   
     e( 20 - 24) =    -14.00368  eV     5   -->   3 B_1  G_3 D_2   
     e( 25 - 36) =    -13.96870  eV    12   -->   ?

 **************************************************************************

 **************************************************************************

                    xk=(   0.00000,   0.05000,   0.00000  )

     Band symmetry, C_4v (4mm)  point group:

     e(  1 -  1) =    -18.60269  eV     1   --> A_1  G_1 D_1   
     e(  2 -  4) =    -18.60247  eV     3   --> A_1  G_1 D_1   
     e(  2 -  4) =    -18.60247  eV     3   --> E    G_5 D_5   
     e(  5 -  7) =    -18.60226  eV     3   --> B_2  G_4 D_2'  
     e(  5 -  7) =    -18.60226  eV     3   --> E    G_5 D_5   
     e(  8 -  8) =    -18.60207  eV     1   --> B_2  G_4 D_2'  
     e(  9 - 13) =    -14.01982  eV     5   -->   2 A_1  G_1 D_1   
     e(  9 - 13) =    -14.01982  eV     5   -->   3 B_1  G_3 D_2   
     e( 14 - 16) =    -14.01452  eV     3   -->   2 A_1  G_1 D_1   
     e( 14 - 16) =    -14.01452  eV     3   --> B_1  G_3 D_2   
     e( 17 - 19) =    -14.00915  eV     3   -->   ?
     e( 20 - 24) =    -14.00371  eV     5   -->   ?
     e( 25 - 34) =    -13.96872  eV    10   -->   ?
     e( 35 - 36) =    -13.96824  eV     2   -->   ?

 **************************************************************************

 **************************************************************************

                    xk=(   0.00000,   0.06667,   0.00000  )

     Band symmetry, C_4v (4mm)  point group:

     e(  1 -  1) =    -18.60269  eV     1   --> A_1  G_1 D_1   
     e(  2 -  4) =    -18.60247  eV     3   --> A_1  G_1 D_1   
     e(  2 -  4) =    -18.60247  eV     3   --> E    G_5 D_5   
     e(  5 -  7) =    -18.60226  eV     3   --> B_2  G_4 D_2'  
     e(  5 -  7) =    -18.60226  eV     3   --> E    G_5 D_5   
     e(  8 -  8) =    -18.60207  eV     1   --> B_2  G_4 D_2'  
     e(  9 - 13) =    -14.01980  eV     5   -->   2 A_1  G_1 D_1   
     e(  9 - 13) =    -14.01980  eV     5   -->   3 B_1  G_3 D_2   
     e( 14 - 15) =    -14.01454  eV     2   --> A_1  G_1 D_1   
     e( 14 - 15) =    -14.01454  eV     2   --> B_1  G_3 D_2   
     e( 16 - 16) =    -14.01438  eV     1   --> A_1  G_1 D_1   
     e( 17 - 17) =    -14.00918  eV     1   --> A_1  G_1 D_1   
     e( 18 - 19) =    -14.00905  eV     2   --> A_1  G_1 D_1   
     e( 18 - 19) =    -14.00905  eV     2   --> B_1  G_3 D_2   
     e( 20 - 24) =    -14.00371  eV     5   -->   2 A_1  G_1 D_1   
     e( 20 - 24) =    -14.00371  eV     5   -->   ?
     e( 25 - 34) =    -13.96869  eV    10   -->   ?
     e( 35 - 36) =    -13.96819  eV     2   -->   ?

 **************************************************************************

 **************************************************************************

                    xk=(   0.00000,   0.08333,   0.00000  )

     Band symmetry, C_4v (4mm)  point group:

     e(  1 -  1) =    -18.60269  eV     1   --> A_1  G_1 D_1   
     e(  2 -  4) =    -18.60247  eV     3   --> A_1  G_1 D_1   
     e(  2 -  4) =    -18.60247  eV     3   --> E    G_5 D_5   
     e(  5 -  7) =    -18.60226  eV     3   --> B_2  G_4 D_2'  
     e(  5 -  7) =    -18.60226  eV     3   --> E    G_5 D_5   
     e(  8 -  8) =    -18.60207  eV     1   --> B_2  G_4 D_2'  
     e(  9 - 13) =    -14.01979  eV     5   -->   2 A_1  G_1 D_1   
     e(  9 - 13) =    -14.01979  eV     5   -->   3 B_1  G_3 D_2   
     e( 14 - 15) =    -14.01456  eV     2   --> A_1  G_1 D_1   
     e( 14 - 15) =    -14.01456  eV     2   --> B_1  G_3 D_2   
     e( 16 - 16) =    -14.01428  eV     1   --> A_1  G_1 D_1   
     e( 17 - 17) =    -14.00927  eV     1   --> A_1  G_1 D_1   
     e( 18 - 19) =    -14.00905  eV     2   --> A_1  G_1 D_1   
     e( 18 - 19) =    -14.00905  eV     2   --> B_1  G_3 D_2   
     e( 20 - 24) =    -14.00377  eV     5   -->   ?
     e( 25 - 36) =    -13.96870  eV    12   -->   ?

 **************************************************************************

 **************************************************************************

                    xk=(   0.00000,   0.10000,   0.00000  )

     Band symmetry, C_4v (4mm)  point group:

     e(  1 -  1) =    -18.60269  eV     1   --> A_1  G_1 D_1   
     e(  2 -  4) =    -18.60247  eV     3   --> A_1  G_1 D_1   
     e(  2 -  4) =    -18.60247  eV     3   --> E    G_5 D_5   
     e(  5 -  7) =    -18.60226  eV     3   --> B_2  G_4 D_2'  
     e(  5 -  7) =    -18.60226  eV     3   --> E    G_5 D_5   
     e(  8 -  8) =    -18.60207  eV     1   --> B_2  G_4 D_2'  
     e(  9 - 10) =    -14.01979  eV     2   -->   2 B_1  G_3 D_2   
     e( 11 - 13) =    -14.01960  eV     3   -->   ?
     e( 14 - 15) =    -14.01457  eV     2   --> A_1  G_1 D_1   
     e( 14 - 15) =    -14.01457  eV     2   --> B_1  G_3 D_2   
     e( 16 - 16) =    -14.01421  eV     1   --> A_1  G_1 D_1   
     e( 17 - 17) =    -14.00935  eV     1   --> A_1  G_1 D_1   
     e( 18 - 19) =    -14.00901  eV     2   --> A_1  G_1 D_1   
     e( 18 - 19) =    -14.00901  eV     2   --> B_1  G_3 D_2   
     e( 20 - 20) =    -14.00386  eV     1   -->   ?
     e( 21 - 22) =    -14.00375  eV     2   --> A_1  G_1 D_1   
     e( 21 - 22) =    -14.00375  eV     2   -->   ?
     e( 23 - 24) =    -14.00363  eV     2   -->   ?
     e( 25 - 35) =    -13.96867  eV    11   -->   ?
     e( 36 - 36) =    -13.96813  eV     1   -->   ?

 **************************************************************************

 **************************************************************************

                    xk=(   0.00000,   0.11667,   0.00000  )

     Band symmetry, C_4v (4mm)  point group:

     e(  1 -  1) =    -18.60269  eV     1   --> A_1  G_1 D_1   
     e(  2 -  4) =    -18.60248  eV     3   --> A_1  G_1 D_1   
     e(  2 -  4) =    -18.60248  eV     3   --> E    G_5 D_5   
     e(  5 -  7) =    -18.60226  eV     3   --> B_2  G_4 D_2'  
     e(  5 -  7) =    -18.60226  eV     3   --> E    G_5 D_5   
     e(  8 -  8) =    -18.60207  eV     1   --> B_2  G_4 D_2'  
     e(  9 - 10) =    -14.01979  eV     2   -->   2 B_1  G_3 D_2   
     e( 11 - 13) =    -14.01952  eV     3   -->   2 A_1  G_1 D_1   
     e( 11 - 13) =    -14.01952  eV     3   --> B_1  G_3 D_2   
     e( 14 - 15) =    -14.01460  eV     2   --> A_1  G_1 D_1   
     e( 14 - 15) =    -14.01460  eV     2   --> B_1  G_3 D_2   
     e( 16 - 16) =    -14.01413  eV     1   --> A_1  G_1 D_1   
     e( 17 - 17) =    -14.00944  eV     1   -->   ?
     e( 18 - 19) =    -14.00898  eV     2   --> A_1  G_1 D_1   
     e( 18 - 19) =    -14.00898  eV     2   --> B_1  G_3 D_2   
     e( 20 - 20) =    -14.00395  eV     1   -->   ?
     e( 21 - 22) =    -14.00385  eV     2   -->   ?
     e( 23 - 24) =    -14.00361  eV     2   -->   ?
     e( 25 - 36) =    -13.96871  eV    12   -->   ?

 **************************************************************************

 **************************************************************************

                    xk=(   0.00000,   0.13333,   0.00000  )

     Band symmetry, C_4v (4mm)  point group:

     e(  1 -  1) =    -18.60268  eV     1   --> A_1  G_1 D_1   
     e(  2 -  4) =    -18.60248  eV     3   --> A_1  G_1 D_1   
     e(  2 -  4) =    -18.60248  eV     3   --> E    G_5 D_5   
     e(  5 -  7) =    -18.60227  eV     3   --> B_2  G_4 D_2'  
     e(  5 -  7) =    -18.60227  eV     3   --> E    G_5 D_5   
     e(  8 -  8) =    -18.60208  eV     1   --> B_2  G_4 D_2'  
     e(  9 - 10) =    -14.01979  eV     2   -->   2 B_1  G_3 D_2   
     e( 11 - 12) =    -14.01944  eV     2   --> A_1  G_1 D_1   
     e( 11 - 12) =    -14.01944  eV     2   --> B_1  G_3 D_2   
     e( 13 - 13) =    -14.01928  eV     1   --> A_1  G_1 D_1   
     e( 14 - 15) =    -14.01464  eV     2   --> A_1  G_1 D_1   
     e( 14 - 15) =    -14.01464  eV     2   --> B_1  G_3 D_2   
     e( 16 - 16) =    -14.01402  eV     1   --> A_1  G_1 D_1   
     e( 17 - 17) =    -14.00954  eV     1   --> A_1  G_1 D_1   
     e( 18 - 19) =    -14.00896  eV     2   --> A_1  G_1 D_1   
     e( 18 - 19) =    -14.00896  eV     2   --> B_1  G_3 D_2   
     e( 20 - 20) =    -14.00407  eV     1   -->   ?
     e( 21 - 22) =    -14.00394  eV     2   --> A_1  G_1 D_1   
     e( 21 - 22) =    -14.00394  eV     2   -->   ?
     e( 23 - 24) =    -14.00361  eV     2   -->   2 B_1  G_3 D_2   
     e( 25 - 36) =    -13.96863  eV    12   -->   ?

 **************************************************************************

 **************************************************************************

                    xk=(   0.00000,   0.15000,   0.00000  )

     Band symmetry, C_4v (4mm)  point group:

     e(  1 -  1) =    -18.60268  eV     1   --> A_1  G_1 D_1   
     e(  2 -  4) =    -18.60248  eV     3   --> A_1  G_1 D_1   
     e(  2 -  4) =    -18.60248  eV     3   --> E    G_5 D_5   
     e(  5 -  7) =    -18.60227  eV     3   --> B_2  G_4 D_2'  
     e(  5 -  7) =    -18.60227  eV     3   --> E    G_5 D_5   
     e(  8 -  8) =    -18.60208  eV     1   --> B_2  G_4 D_2'  
     e(  9 - 10) =    -14.01978  eV     2   -->   2 B_1  G_3 D_2   
     e( 11 - 12) =    -14.01936  eV     2   --> A_1  G_1 D_1   
     e( 11 - 12) =    -14.01936  eV     2   --> B_1  G_3 D_2   
     e( 13 - 13) =    -14.01919  eV     1   --> A_1  G_1 D_1   
     e( 14 - 15) =    -14.01467  eV     2   --> A_1  G_1 D_1   
     e( 14 - 15) =    -14.01467  eV     2   --> B_1  G_3 D_2   
     e( 16 - 16) =    -14.01390  eV     1   --> A_1  G_1 D_1   
     e( 17 - 17) =    -14.00966  eV     1   --> A_1  G_1 D_1   
     e( 18 - 19) =    -14.00892  eV     2   --> A_1  G_1 D_1   
     e( 18 - 19) =    -14.00892  eV     2   --> B_1  G_3 D_2   
     e( 20 - 20) =    -14.00420  eV     1   -->   ?
     e( 21 - 22) =    -14.00403  eV     2   --> A_1  G_1 D_1   
     e( 21 - 22) =    -14.00403  eV     2   -->   ?
     e( 25 - 36) =    -13.96870  eV    12   -->   ?

 **************************************************************************

 **************************************************************************

                    xk=(   0.00000,   0.16667,   0.00000  )

     Band symmetry, C_4v (4mm)  point group:

     e(  1 -  1) =    -18.60268  eV     1   --> A_1  G_1 D_1   
     e(  2 -  4) =    -18.60248  eV     3   --> A_1  G_1 D_1   
     e(  2 -  4) =    -18.60248  eV     3   --> E    G_5 D_5   
     e(  5 -  7) =    -18.60227  eV     3   --> B_2  G_4 D_2'  
     e(  5 -  7) =    -18.60227  eV     3   --> E    G_5 D_5   
     e(  8 -  8) =    -18.60208  eV     1   --> B_2  G_4 D_2'  
     e(  9 - 10) =    -14.01979  eV     2   -->   2 B_1  G_3 D_2   
     e( 11 - 12) =    -14.01926  eV     2   --> A_1  G_1 D_1   
     e( 11 - 12) =    -14.01926  eV     2   --> B_1  G_3 D_2   
     e( 13 - 13) =    -14.01906  eV     1   --> A_1  G_1 D_1   
     e( 14 - 15) =    -14.01470  eV     2   --> A_1  G_1 D_1   
     e( 14 - 15) =    -14.01470  eV     2   --> B_1  G_3 D_2   
     e( 16 - 16) =    -14.01377  eV     1   --> A_1  G_1 D_1   
     e( 17 - 17) =    -14.00983  eV     1   --> A_1  G_1 D_1   
     e( 18 - 19) =    -14.00889  eV     2   --> A_1  G_1 D_1   
     e( 18 - 19) =    -14.00889  eV     2   --> B_1  G_3 D_2   
     e( 20 - 20) =    -14.00433  eV     1   -->   ?
     e( 21 - 22) =    -14.00412  eV     2   --> A_1  G_1 D_1   
     e( 21 - 22) =    -14.00412  eV     2   --> B_1  G_3 D_2   
     e( 23 - 24) =    -14.00361  eV     2   -->   ?
     e( 25 - 36) =    -13.96868  eV    12   -->   ?

 **************************************************************************

 **************************************************************************

                    xk=(   0.00000,   0.18333,   0.00000  )

     Band symmetry, C_4v (4mm)  point group:

     e(  1 -  1) =    -18.60267  eV     1   --> A_1  G_1 D_1   
     e(  2 -  4) =    -18.60249  eV     3   --> A_1  G_1 D_1   
     e(  2 -  4) =    -18.60249  eV     3   --> E    G_5 D_5   
     e(  5 -  7) =    -18.60228  eV     3   --> B_2  G_4 D_2'  
     e(  5 -  7) =    -18.60228  eV     3   --> E    G_5 D_5   
     e(  8 -  8) =    -18.60208  eV     1   --> B_2  G_4 D_2'  
     e(  9 - 10) =    -14.01977  eV     2   -->   2 B_1  G_3 D_2   
     e( 11 - 12) =    -14.01916  eV     2   --> A_1  G_1 D_1   
     e( 11 - 12) =    -14.01916  eV     2   --> B_1  G_3 D_2   
     e( 13 - 13) =    -14.01891  eV     1   --> A_1  G_1 D_1   
     e( 14 - 15) =    -14.01475  eV     2   --> A_1  G_1 D_1   
     e( 14 - 15) =    -14.01475  eV     2   --> B_1  G_3 D_2   
     e( 16 - 16) =    -14.01361  eV     1   --> A_1  G_1 D_1   
     e( 17 - 17) =    -14.00994  eV     1   --> A_1  G_1 D_1   
     e( 18 - 19) =    -14.00884  eV     2   --> A_1  G_1 D_1   
     e( 18 - 19) =    -14.00884  eV     2   --> B_1  G_3 D_2   
     e( 20 - 20) =    -14.00448  eV     1   --> A_1  G_1 D_1   
     e( 21 - 22) =    -14.00423  eV     2   --> A_1  G_1 D_1   
     e( 21 - 22) =    -14.00423  eV     2   --> B_1  G_3 D_2   
     e( 23 - 24) =    -14.00359  eV     2   -->   2 B_1  G_3 D_2   
     e( 25 - 36) =    -13.96871  eV    12   -->   ?

 **************************************************************************

 **************************************************************************

                    xk=(   0.00000,   0.20000,   0.00000  )

     Band symmetry, C_4v (4mm)  point group:

     e(  1 -  1) =    -18.60267  eV     1   --> A_1  G_1 D_1   
     e(  2 -  4) =    -18.60249  eV     3   --> A_1  G_1 D_1   
     e(  2 -  4) =    -18.60249  eV     3   --> E    G_5 D_5   
     e(  5 -  7) =    -18.60228  eV     3   --> B_2  G_4 D_2'  
     e(  5 -  7) =    -18.60228  eV     3   --> E    G_5 D_5   
     e(  8 -  8) =    -18.60209  eV     1   --> B_2  G_4 D_2'  
     e(  9 - 10) =    -14.01976  eV     2   -->   2 B_1  G_3 D_2   
     e( 11 - 12) =    -14.01904  eV     2   --> A_1  G_1 D_1   
     e( 11 - 12) =    -14.01904  eV     2   --> B_1  G_3 D_2   
     e( 13 - 13) =    -14.01874  eV     1   --> A_1  G_1 D_1   
     e( 14 - 15) =    -14.01479  eV     2   --> A_1  G_1 D_1   
     e( 14 - 15) =    -14.01479  eV     2   --> B_1  G_3 D_2   
     e( 16 - 16) =    -14.01345  eV     1   --> A_1  G_1 D_1   
     e( 17 - 17) =    -14.01010  eV     1   --> A_1  G_1 D_1   
     e( 18 - 19) =    -14.00880  eV     2   --> A_1  G_1 D_1   
     e( 18 - 19) =    -14.00880  eV     2   --> B_1  G_3 D_2   
     e( 20 - 20) =    -14.00464  eV     1   --> A_1  G_1 D_1   
     e( 21 - 22) =    -14.00433  eV     2   --> A_1  G_1 D_1   
     e( 21 - 22) =    -14.00433  eV     2   --> B_1  G_3 D_2   
     e( 23 - 24) =    -14.00361  eV     2   -->   2 B_1  G_3 D_2   
     e( 25 - 36) =    -13.96873  eV    12   -->   ?

 **************************************************************************

 **************************************************************************

                    xk=(   0.00000,   0.21667,   0.00000  )

     Band symmetry, C_4v (4mm)  point group:

     e(  1 -  1) =    -18.60267  eV     1   --> A_1  G_1 D_1   
     e(  2 -  4) =    -18.60249  eV     3   --> A_1  G_1 D_1   
     e(  2 -  4) =    -18.60249  eV     3   --> E    G_5 D_5   
     e(  5 -  7) =    -18.60228  eV     3   --> B_2  G_4 D_2'  
     e(  5 -  7) =    -18.60228  eV     3   --> E    G_5 D_5   
     e(  8 -  8) =    -18.60209  eV     1   --> B_2  G_4 D_2'  
     e(  9 - 10) =    -14.01977  eV     2   -->   2 B_1  G_3 D_2   
     e( 11 - 12) =    -14.01891  eV     2   --> A_1  G_1 D_1   
     e( 11 - 12) =    -14.01891  eV     2   --> B_1  G_3 D_2   
     e( 13 - 13) =    -14.01857  eV     1   --> A_1  G_1 D_1   
     e( 14 - 15) =    -14.01484  eV     2   --> A_1  G_1 D_1   
     e( 14 - 15) =    -14.01484  eV     2   --> B_1  G_3 D_2   
     e( 16 - 16) =    -14.01327  eV     1   --> A_1  G_1 D_1   
     e( 17 - 17) =    -14.01027  eV     1   --> A_1  G_1 D_1   
     e( 18 - 19) =    -14.00874  eV     2   --> A_1  G_1 D_1   
     e( 18 - 19) =    -14.00874  eV     2   --> B_1  G_3 D_2   
     e( 20 - 20) =    -14.00482  eV     1   --> A_1  G_1 D_1   
     e( 21 - 22) =    -14.00446  eV     2   --> A_1  G_1 D_1   
     e( 21 - 22) =    -14.00446  eV     2   --> B_1  G_3 D_2   
     e( 23 - 24) =    -14.00361  eV     2   -->   ?
     e( 25 - 25) =    -13.96871  eV     1   -->   ?
     e( 26 - 36) =    -13.96860  eV    11   -->   ?

 **************************************************************************

 **************************************************************************

                    xk=(   0.00000,   0.23333,   0.00000  )

     Band symmetry, C_4v (4mm)  point group:

     e(  1 -  1) =    -18.60266  eV     1   --> A_1  G_1 D_1   
     e(  2 -  4) =    -18.60250  eV     3   --> A_1  G_1 D_1   
     e(  2 -  4) =    -18.60250  eV     3   --> E    G_5 D_5   
     e(  5 -  7) =    -18.60228  eV     3   --> B_2  G_4 D_2'  
     e(  5 -  7) =    -18.60228  eV     3   --> E    G_5 D_5   
     e(  8 -  8) =    -18.60209  eV     1   --> B_2  G_4 D_2'  
     e(  9 - 10) =    -14.01977  eV     2   -->   2 B_1  G_3 D_2   
     e( 11 - 12) =    -14.01878  eV     2   --> A_1  G_1 D_1   
     e( 11 - 12) =    -14.01878  eV     2   --> B_1  G_3 D_2   
     e( 13 - 13) =    -14.01839  eV     1   --> A_1  G_1 D_1   
     e( 14 - 15) =    -14.01489  eV     2   --> A_1  G_1 D_1   
     e( 14 - 15) =    -14.01489  eV     2   --> B_1  G_3 D_2   
     e( 16 - 16) =    -14.01308  eV     1   --> A_1  G_1 D_1   
     e( 17 - 17) =    -14.01046  eV     1   --> A_1  G_1 D_1   
     e( 18 - 19) =    -14.00868  eV     2   --> A_1  G_1 D_1   
     e( 18 - 19) =    -14.00868  eV     2   --> B_1  G_3 D_2   
     e( 20 - 20) =    -14.00495  eV     1   --> A_1  G_1 D_1   
     e( 21 - 22) =    -14.00459  eV     2   --> A_1  G_1 D_1   
     e( 21 - 22) =    -14.00459  eV     2   --> B_1  G_3 D_2   
     e( 23 - 24) =    -14.00361  eV     2   -->   ?
     e( 25 - 36) =    -13.96869  eV    12   -->   ?

 **************************************************************************

 **************************************************************************

                    xk=(   0.00000,   0.25000,   0.00000  )

     Band symmetry, C_4v (4mm)  point group:

     e(  1 -  1) =    -18.60266  eV     1   --> A_1  G_1 D_1   
     e(  2 -  4) =    -18.60250  eV     3   --> A_1  G_1 D_1   
     e(  2 -  4) =    -18.60250  eV     3   --> E    G_5 D_5   
     e(  5 -  7) =    -18.60229  eV     3   --> B_2  G_4 D_2'  
     e(  5 -  7) =    -18.60229  eV     3   --> E    G_5 D_5   
     e(  8 -  8) =    -18.60210  eV     1   --> B_2  G_4 D_2'  
     e(  9 - 10) =    -14.01978  eV     2   -->   2 B_1  G_3 D_2   
     e( 11 - 12) =    -14.01866  eV     2   --> A_1  G_1 D_1   
     e( 11 - 12) =    -14.01866  eV     2   --> B_1  G_3 D_2   
     e( 13 - 13) =    -14.01821  eV     1   --> A_1  G_1 D_1   
     e( 14 - 15) =    -14.01495  eV     2   --> A_1  G_1 D_1   
     e( 14 - 15) =    -14.01495  eV     2   --> B_1  G_3 D_2   
     e( 16 - 16) =    -14.01287  eV     1   --> A_1  G_1 D_1   
     e( 17 - 17) =    -14.01065  eV     1   --> A_1  G_1 D_1   
     e( 18 - 19) =    -14.00863  eV     2   --> A_1  G_1 D_1   
     e( 18 - 19) =    -14.00863  eV     2   --> B_1  G_3 D_2   
     e( 20 - 20) =    -14.00515  eV     1   --> A_1  G_1 D_1   
     e( 21 - 22) =    -14.00473  eV     2   --> A_1  G_1 D_1   
     e( 21 - 22) =    -14.00473  eV     2   --> B_1  G_3 D_2   
     e( 23 - 24) =    -14.00360  eV     2   -->   ?
     e( 25 - 36) =    -13.96864  eV    12   -->   ?

 **************************************************************************

 **************************************************************************

                    xk=(   0.00000,   0.26667,   0.00000  )

     Band symmetry, C_4v (4mm)  point group:

     e(  1 -  1) =    -18.60266  eV     1   --> A_1  G_1 D_1   
     e(  2 -  4) =    -18.60250  eV     3   --> A_1  G_1 D_1   
     e(  2 -  4) =    -18.60250  eV     3   --> E    G_5 D_5   
     e(  5 -  7) =    -18.60229  eV     3   --> B_2  G_4 D_2'  
     e(  5 -  7) =    -18.60229  eV     3   --> E    G_5 D_5   
     e(  8 -  8) =    -18.60210  eV     1   --> B_2  G_4 D_2'  
     e(  9 - 10) =    -14.01977  eV     2   -->   2 B_1  G_3 D_2   
     e( 11 - 12) =    -14.01852  eV     2   --> A_1  G_1 D_1   
     e( 11 - 12) =    -14.01852  eV     2   --> B_1  G_3 D_2   
     e( 13 - 13) =    -14.01800  eV     1   --> A_1  G_1 D_1   
     e( 14 - 15) =    -14.01501  eV     2   --> A_1  G_1 D_1   
     e( 14 - 15) =    -14.01501  eV     2   --> B_1  G_3 D_2   
     e( 16 - 16) =    -14.01270  eV     1   --> A_1  G_1 D_1   
     e( 17 - 17) =    -14.01087  eV     1   --> A_1  G_1 D_1   
     e( 18 - 19) =    -14.00856  eV     2   --> A_1  G_1 D_1   
     e( 18 - 19) =    -14.00856  eV     2   --> B_1  G_3 D_2   
     e( 20 - 20) =    -14.00536  eV     1   --> A_1  G_1 D_1   
     e( 21 - 22) =    -14.00487  eV     2   --> A_1  G_1 D_1   
     e( 21 - 22) =    -14.00487  eV     2   --> B_1  G_3 D_2   
     e( 23 - 24) =    -14.00360  eV     2   -->   2 B_1  G_3 D_2   
     e( 25 - 36) =    -13.96867  eV    12   -->   ?

 **************************************************************************

 **************************************************************************

                    xk=(   0.00000,   0.28333,   0.00000  )

     Band symmetry, C_4v (4mm)  point group:

     e(  1 -  1) =    -18.60265  eV     1   --> A_1  G_1 D_1   
     e(  2 -  4) =    -18.60251  eV     3   --> A_1  G_1 D_1   
     e(  2 -  4) =    -18.60251  eV     3   --> E    G_5 D_5   
     e(  5 -  7) =    -18.60230  eV     3   --> B_2  G_4 D_2'  
     e(  5 -  7) =    -18.60230  eV     3   --> E    G_5 D_5   
     e(  8 -  8) =    -18.60210  eV     1   --> B_2  G_4 D_2'  
     e(  9 - 10) =    -14.01977  eV     2   -->   2 B_1  G_3 D_2   
     e( 11 - 12) =    -14.01838  eV     2   --> A_1  G_1 D_1   
     e( 11 - 12) =    -14.01838  eV     2   --> B_1  G_3 D_2   
     e( 13 - 13) =    -14.01780  eV     1   --> A_1  G_1 D_1   
     e( 14 - 15) =    -14.01508  eV     2   --> A_1  G_1 D_1   
     e( 14 - 15) =    -14.01508  eV     2   --> B_1  G_3 D_2   
     e( 16 - 16) =    -14.01247  eV     1   --> A_1  G_1 D_1   
     e( 17 - 17) =    -14.01110  eV     1   --> A_1  G_1 D_1   
     e( 18 - 19) =    -14.00849  eV     2   --> A_1  G_1 D_1   
     e( 18 - 19) =    -14.00849  eV     2   --> B_1  G_3 D_2   
     e( 20 - 20) =    -14.00557  eV     1   --> A_1  G_1 D_1   
     e( 21 - 22) =    -14.00502  eV     2   --> A_1  G_1 D_1   
     e( 21 - 22) =    -14.00502  eV     2   --> B_1  G_3 D_2   
     e( 23 - 24) =    -14.00360  eV     2   -->   ?
     e( 25 - 36) =    -13.96864  eV    12   -->   ?

 **************************************************************************

 **************************************************************************

                    xk=(   0.00000,   0.30000,   0.00000  )

     Band symmetry, C_4v (4mm)  point group:

     e(  1 -  1) =    -18.60265  eV     1   --> A_1  G_1 D_1   
     e(  2 -  4) =    -18.60251  eV     3   --> A_1  G_1 D_1   
     e(  2 -  4) =    -18.60251  eV     3   --> E    G_5 D_5   
     e(  5 -  7) =    -18.60230  eV     3   --> B_2  G_4 D_2'  
     e(  5 -  7) =    -18.60230  eV     3   --> E    G_5 D_5   
     e(  8 -  8) =    -18.60211  eV     1   --> B_2  G_4 D_2'  
     e(  9 - 10) =    -14.01977  eV     2   -->   2 B_1  G_3 D_2   
     e( 11 - 12) =    -14.01823  eV     2   --> A_1  G_1 D_1   
     e( 11 - 12) =    -14.01823  eV     2   --> B_1  G_3 D_2   
     e( 13 - 13) =    -14.01758  eV     1   --> A_1  G_1 D_1   
     e( 14 - 15) =    -14.01515  eV     2   --> A_1  G_1 D_1   
     e( 14 - 15) =    -14.01515  eV     2   --> B_1  G_3 D_2   
     e( 16 - 16) =    -14.01225  eV     1   --> A_1  G_1 D_1   
     e( 17 - 17) =    -14.01131  eV     1   --> A_1  G_1 D_1   
     e( 18 - 19) =    -14.00841  eV     2   --> A_1  G_1 D_1   
     e( 18 - 19) =    -14.00841  eV     2   --> B_1  G_3 D_2   
     e( 20 - 20) =    -14.00582  eV     1   --> A_1  G_1 D_1   
     e( 21 - 22) =    -14.00518  eV     2   --> A_1  G_1 D_1   
     e( 21 - 22) =    -14.00518  eV     2   --> B_1  G_3 D_2   
     e( 23 - 24) =    -14.00360  eV     2   -->   ?
     e( 25 - 36) =    -13.96865  eV    12   -->   ?

 **************************************************************************

 **************************************************************************

                    xk=(   0.00000,   0.31667,   0.00000  )

     Band symmetry, C_4v (4mm)  point group:

     e(  1 -  1) =    -18.60264  eV     1   --> A_1  G_1 D_1   
     e(  2 -  4) =    -18.60252  eV     3   --> A_1  G_1 D_1   
     e(  2 -  4) =    -18.60252  eV     3   --> E    G_5 D_5   
     e(  5 -  7) =    -18.60231  eV     3   --> B_2  G_4 D_2'  
     e(  5 -  7) =    -18.60231  eV     3   --> E    G_5 D_5   
     e(  8 -  8) =    -18.60211  eV     1   --> B_2  G_4 D_2'  
     e(  9 - 10) =    -14.01977  eV     2   -->   2 B_1  G_3 D_2   
     e( 11 - 12) =    -14.01808  eV     2   --> A_1  G_1 D_1   
     e( 11 - 12) =    -14.01808  eV     2   --> B_1  G_3 D_2   
     e( 13 - 13) =    -14.01735  eV     1   --> A_1  G_1 D_1   
     e( 14 - 15) =    -14.01523  eV     2   --> A_1  G_1 D_1   
     e( 14 - 15) =    -14.01523  eV     2   --> B_1  G_3 D_2   
     e( 16 - 16) =    -14.01202  eV     1   --> A_1  G_1 D_1   
     e( 17 - 17) =    -14.01154  eV     1   --> A_1  G_1 D_1   
     e( 18 - 19) =    -14.00833  eV     2   --> A_1  G_1 D_1   
     e( 18 - 19) =    -14.00833  eV     2   --> B_1  G_3 D_2   
     e( 20 - 20) =    -14.00606  eV     1   --> A_1  G_1 D_1   
     e( 21 - 22) =    -14.00534  eV     2   --> A_1  G_1 D_1   
     e( 21 - 22) =    -14.00534  eV     2   --> B_1  G_3 D_2   
     e( 23 - 24) =    -14.00359  eV     2   -->   2 B_1  G_3 D_2   
     e( 25 - 36) =    -13.96866  eV    12   -->   ?

 **************************************************************************

 **************************************************************************

                    xk=(   0.00000,   0.33333,   0.00000  )

     Band symmetry, C_4v (4mm)  point group:

     e(  1 -  1) =    -18.60264  eV     1   --> A_1  G_1 D_1   
     e(  2 -  2) =    -18.60252  eV     1   --> A_1  G_1 D_1   
     e(  3 -  4) =    -18.60242  eV     2   --> E    G_5 D_5   
     e(  5 -  8) =    -18.60231  eV     4   -->   2 B_2  G_4 D_2'  
     e(  5 -  8) =    -18.60231  eV     4   --> E    G_5 D_5   
     e(  9 - 10) =    -14.01976  eV     2   -->   2 B_1  G_3 D_2   
     e( 11 - 12) =    -14.01794  eV     2   --> A_1  G_1 D_1   
     e( 11 - 12) =    -14.01794  eV     2   --> B_1  G_3 D_2   
     e( 13 - 13) =    -14.01709  eV     1   --> A_1  G_1 D_1   
     e( 14 - 15) =    -14.01530  eV     2   --> A_1  G_1 D_1   
     e( 14 - 15) =    -14.01530  eV     2   --> B_1  G_3 D_2   
     e( 16 - 17) =    -14.01179  eV     2   -->   2 A_1  G_1 D_1   
     e( 18 - 19) =    -14.00825  eV     2   --> A_1  G_1 D_1   
     e( 18 - 19) =    -14.00825  eV     2   --> B_1  G_3 D_2   
     e( 20 - 20) =    -14.00631  eV     1   --> A_1  G_1 D_1   
     e( 21 - 22) =    -14.00548  eV     2   --> A_1  G_1 D_1   
     e( 21 - 22) =    -14.00548  eV     2   --> B_1  G_3 D_2   
     e( 23 - 24) =    -14.00359  eV     2   -->   2 B_1  G_3 D_2   
     e( 25 - 25) =    -13.96869  eV     1   -->   ?
     e( 26 - 36) =    -13.96858  eV    11   -->   ?

 **************************************************************************

 **************************************************************************

                    xk=(   0.00000,   0.35000,   0.00000  )

     Band symmetry, C_4v (4mm)  point group:

     e(  1 -  1) =    -18.60263  eV     1   --> A_1  G_1 D_1   
     e(  2 -  2) =    -18.60253  eV     1   --> A_1  G_1 D_1   
     e(  3 -  6) =    -18.60241  eV     4   -->   2 E    G_5 D_5   
     e(  7 -  8) =    -18.60221  eV     2   -->   2 B_2  G_4 D_2'  
     e(  9 - 10) =    -14.01976  eV     2   -->   2 B_1  G_3 D_2   
     e( 11 - 12) =    -14.01779  eV     2   --> A_1  G_1 D_1   
     e( 11 - 12) =    -14.01779  eV     2   --> B_1  G_3 D_2   
     e( 13 - 13) =    -14.01685  eV     1   --> A_1  G_1 D_1   
     e( 14 - 15) =    -14.01540  eV     2   --> A_1  G_1 D_1   
     e( 14 - 15) =    -14.01540  eV     2   --> B_1  G_3 D_2   
     e( 16 - 16) =    -14.01202  eV     1   --> A_1  G_1 D_1   
     e( 17 - 17) =    -14.01150  eV     1   --> A_1  G_1 D_1   
     e( 18 - 19) =    -14.00816  eV     2   --> A_1  G_1 D_1   
     e( 18 - 19) =    -14.00816  eV     2   --> B_1  G_3 D_2   
     e( 20 - 20) =    -14.00656  eV     1   -->   ?
     e( 21 - 22) =    -14.00566  eV     2   --> A_1  G_1 D_1   
     e( 21 - 22) =    -14.00566  eV     2   -->   ?
     e( 23 - 24) =    -14.00359  eV     2   -->   ?
     e( 25 - 36) =    -13.96869  eV    12   -->   ?

 **************************************************************************

 **************************************************************************

                    xk=(   0.00000,   0.36667,   0.00000  )

     Band symmetry, C_4v (4mm)  point group:

     e(  1 -  2) =    -18.60263  eV     2   -->   2 A_1  G_1 D_1   
     e(  3 -  6) =    -18.60241  eV     4   -->   2 E    G_5 D_5   
     e(  7 -  8) =    -18.60220  eV     2   -->   2 B_2  G_4 D_2'  
     e(  9 - 10) =    -14.01977  eV     2   -->   2 B_1  G_3 D_2   
     e( 11 - 12) =    -14.01763  eV     2   --> A_1  G_1 D_1   
     e( 11 - 12) =    -14.01763  eV     2   --> B_1  G_3 D_2   
     e( 13 - 13) =    -14.01659  eV     1   --> A_1  G_1 D_1   
     e( 14 - 15) =    -14.01550  eV     2   --> A_1  G_1 D_1   
     e( 14 - 15) =    -14.01550  eV     2   --> B_1  G_3 D_2   
     e( 16 - 16) =    -14.01228  eV     1   --> A_1  G_1 D_1   
     e( 17 - 17) =    -14.01124  eV     1   --> A_1  G_1 D_1   
     e( 18 - 19) =    -14.00806  eV     2   --> A_1  G_1 D_1   
     e( 18 - 19) =    -14.00806  eV     2   -->   ?
     e( 20 - 20) =    -14.00682  eV     1   -->   ?
     e( 21 - 22) =    -14.00582  eV     2   --> A_1  G_1 D_1   
     e( 21 - 22) =    -14.00582  eV     2   --> B_1  G_3 D_2   
     e( 25 - 36) =    -13.96862  eV    12   -->   ?

 **************************************************************************

 **************************************************************************

                    xk=(   0.00000,   0.38333,   0.00000  )

     Band symmetry, C_4v (4mm)  point group:

     e(  1 -  2) =    -18.60262  eV     2   -->   2 A_1  G_1 D_1   
     e(  3 -  6) =    -18.60240  eV     4   -->   2 E    G_5 D_5   
     e(  7 -  8) =    -18.60220  eV     2   -->   2 B_2  G_4 D_2'  
     e(  9 - 10) =    -14.01976  eV     2   -->   2 B_1  G_3 D_2   
     e( 11 - 12) =    -14.01747  eV     2   --> A_1  G_1 D_1   
     e( 11 - 12) =    -14.01747  eV     2   --> B_1  G_3 D_2   
     e( 13 - 13) =    -14.01634  eV     1   --> A_1  G_1 D_1   
     e( 14 - 15) =    -14.01559  eV     2   --> A_1  G_1 D_1   
     e( 14 - 15) =    -14.01559  eV     2   --> B_1  G_3 D_2   
     e( 16 - 16) =    -14.01255  eV     1   --> A_1  G_1 D_1   
     e( 17 - 17) =    -14.01100  eV     1   --> A_1  G_1 D_1   
     e( 18 - 19) =    -14.00795  eV     2   --> A_1  G_1 D_1   
     e( 18 - 19) =    -14.00795  eV     2   --> B_1  G_3 D_2   
     e( 20 - 20) =    -14.00708  eV     1   --> A_1  G_1 D_1   
     e( 21 - 22) =    -14.00598  eV     2   --> A_1  G_1 D_1   
     e( 21 - 22) =    -14.00598  eV     2   --> B_1  G_3 D_2   
     e( 23 - 24) =    -14.00357  eV     2   -->   ?
     e( 25 - 36) =    -13.96868  eV    12   -->   ?

 **************************************************************************

 **************************************************************************

                    xk=(   0.00000,   0.40000,   0.00000  )

     Band symmetry, C_4v (4mm)  point group:

     e(  1 -  2) =    -18.60261  eV     2   -->   2 A_1  G_1 D_1   
     e(  3 -  6) =    -18.60240  eV     4   -->   2 E    G_5 D_5   
     e(  7 -  8) =    -18.60219  eV     2   -->   2 B_2  G_4 D_2'  
     e(  9 - 10) =    -14.01977  eV     2   -->   2 B_1  G_3 D_2   
     e( 11 - 12) =    -14.01732  eV     2   --> A_1  G_1 D_1   
     e( 11 - 12) =    -14.01732  eV     2   --> B_1  G_3 D_2   
     e( 13 - 13) =    -14.01609  eV     1   --> A_1  G_1 D_1   
     e( 14 - 15) =    -14.01570  eV     2   --> A_1  G_1 D_1   
     e( 14 - 15) =    -14.01570  eV     2   --> B_1  G_3 D_2   
     e( 16 - 16) =    -14.01282  eV     1   --> A_1  G_1 D_1   
     e( 17 - 17) =    -14.01073  eV     1   --> A_1  G_1 D_1   
     e( 18 - 19) =    -14.00784  eV     2   --> A_1  G_1 D_1   
     e( 18 - 19) =    -14.00784  eV     2   --> B_1  G_3 D_2   
     e( 20 - 20) =    -14.00735  eV     1   --> A_1  G_1 D_1   
     e( 21 - 22) =    -14.00615  eV     2   --> A_1  G_1 D_1   
     e( 21 - 22) =    -14.00615  eV     2   --> B_1  G_3 D_2   
     e( 23 - 24) =    -14.00357  eV     2   -->   2 B_1  G_3 D_2   
     e( 25 - 36) =    -13.96863  eV    12   -->   ?

 **************************************************************************

 **************************************************************************

                    xk=(   0.00000,   0.41667,   0.00000  )

     Band symmetry, C_4v (4mm)  point group:

     e(  1 -  2) =    -18.60261  eV     2   -->   2 A_1  G_1 D_1   
     e(  3 -  6) =    -18.60239  eV     4   -->   2 E    G_5 D_5   
     e(  7 -  8) =    -18.60219  eV     2   -->   2 B_2  G_4 D_2'  
     e(  9 - 10) =    -14.01977  eV     2   -->   2 B_1  G_3 D_2   
     e( 11 - 12) =    -14.01715  eV     2   --> A_1  G_1 D_1   
     e( 11 - 12) =    -14.01715  eV     2   --> B_1  G_3 D_2   
     e( 13 - 15) =    -14.01582  eV     3   -->   2 A_1  G_1 D_1   
     e( 13 - 15) =    -14.01582  eV     3   --> B_1  G_3 D_2   
     e( 16 - 16) =    -14.01309  eV     1   --> A_1  G_1 D_1   
     e( 17 - 17) =    -14.01045  eV     1   --> A_1  G_1 D_1   
     e( 18 - 20) =    -14.00772  eV     3   -->   2 A_1  G_1 D_1   
     e( 18 - 20) =    -14.00772  eV     3   --> B_1  G_3 D_2   
     e( 21 - 22) =    -14.00631  eV     2   --> A_1  G_1 D_1   
     e( 21 - 22) =    -14.00631  eV     2   --> B_1  G_3 D_2   
     e( 23 - 24) =    -14.00357  eV     2   -->   2 B_1  G_3 D_2   
     e( 25 - 36) =    -13.96870  eV    12   -->   ?

 **************************************************************************

 **************************************************************************

                    xk=(   0.00000,   0.43333,   0.00000  )

     Band symmetry, C_4v (4mm)  point group:

     e(  1 -  2) =    -18.60260  eV     2   -->   2 A_1  G_1 D_1   
     e(  3 -  6) =    -18.60238  eV     4   -->   2 E    G_5 D_5   
     e(  7 -  8) =    -18.60218  eV     2   -->   2 B_2  G_4 D_2'  
     e(  9 - 10) =    -14.01976  eV     2   -->   2 B_1  G_3 D_2   
     e( 11 - 12) =    -14.01700  eV     2   --> A_1  G_1 D_1   
     e( 11 - 12) =    -14.01700  eV     2   --> B_1  G_3 D_2   
     e( 13 - 14) =    -14.01592  eV     2   --> A_1  G_1 D_1   
     e( 13 - 14) =    -14.01592  eV     2   --> B_1  G_3 D_2   
     e( 15 - 15) =    -14.01555  eV     1   --> A_1  G_1 D_1   
     e( 16 - 16) =    -14.01338  eV     1   --> A_1  G_1 D_1   
     e( 17 - 17) =    -14.01020  eV     1   --> A_1  G_1 D_1   
     e( 18 - 18) =    -14.00790  eV     1   --> A_1  G_1 D_1   
     e( 19 - 20) =    -14.00760  eV     2   --> A_1  G_1 D_1   
     e( 19 - 20) =    -14.00760  eV     2   --> B_1  G_3 D_2   
     e( 21 - 22) =    -14.00646  eV     2   --> A_1  G_1 D_1   
     e( 21 - 22) =    -14.00646  eV     2   --> B_1  G_3 D_2   
     e( 23 - 24) =    -14.00357  eV     2   -->   ?
     e( 25 - 25) =    -13.96869  eV     1   -->   ?
     e( 26 - 36) =    -13.96857  eV    11   -->   ?

 **************************************************************************

 **************************************************************************

                    xk=(   0.00000,   0.45000,   0.00000  )

     Band symmetry, C_4v (4mm)  point group:

     e(  1 -  2) =    -18.60260  eV     2   -->   2 A_1  G_1 D_1   
     e(  3 -  6) =    -18.60238  eV     4   -->   2 E    G_5 D_5   
     e(  7 -  8) =    -18.60218  eV     2   -->   2 B_2  G_4 D_2'  
     e(  9 - 10) =    -14.01976  eV     2   -->   2 B_1  G_3 D_2   
     e( 11 - 12) =    -14.01686  eV     2   --> A_1  G_1 D_1   
     e( 11 - 12) =    -14.01686  eV     2   --> B_1  G_3 D_2   
     e( 13 - 14) =    -14.01604  eV     2   --> A_1  G_1 D_1   
     e( 13 - 14) =    -14.01604  eV     2   --> B_1  G_3 D_2   
     e( 15 - 15) =    -14.01526  eV     1   --> A_1  G_1 D_1   
     e( 16 - 16) =    -14.01363  eV     1   --> A_1  G_1 D_1   
     e( 17 - 17) =    -14.00991  eV     1   --> A_1  G_1 D_1   
     e( 18 - 18) =    -14.00815  eV     1   --> A_1  G_1 D_1   
     e( 19 - 20) =    -14.00748  eV     2   --> A_1  G_1 D_1   
     e( 19 - 20) =    -14.00748  eV     2   --> B_1  G_3 D_2   
     e( 21 - 22) =    -14.00663  eV     2   --> A_1  G_1 D_1   
     e( 21 - 22) =    -14.00663  eV     2   --> B_1  G_3 D_2   
     e( 23 - 24) =    -14.00357  eV     2   -->   2 B_1  G_3 D_2   
     e( 25 - 35) =    -13.96862  eV    11   -->   ?
     e( 36 - 36) =    -13.96819  eV     1   -->   ?

 **************************************************************************

 **************************************************************************

                    xk=(   0.00000,   0.46667,   0.00000  )

     Band symmetry, C_4v (4mm)  point group:

     e(  1 -  2) =    -18.60259  eV     2   -->   2 A_1  G_1 D_1   
     e(  3 -  6) =    -18.60237  eV     4   -->   2 E    G_5 D_5   
     e(  7 -  8) =    -18.60217  eV     2   -->   2 B_2  G_4 D_2'  
     e(  9 - 10) =    -14.01973  eV     2   -->   2 B_1  G_3 D_2   
     e( 11 - 12) =    -14.01669  eV     2   --> A_1  G_1 D_1   
     e( 11 - 12) =    -14.01669  eV     2   --> B_1  G_3 D_2   
     e( 13 - 14) =    -14.01617  eV     2   --> A_1  G_1 D_1   
     e( 13 - 14) =    -14.01617  eV     2   --> B_1  G_3 D_2   
     e( 15 - 15) =    -14.01499  eV     1   --> A_1  G_1 D_1   
     e( 16 - 16) =    -14.01390  eV     1   --> A_1  G_1 D_1   
     e( 17 - 17) =    -14.00963  eV     1   --> A_1  G_1 D_1   
     e( 18 - 18) =    -14.00843  eV     1   --> A_1  G_1 D_1   
     e( 19 - 20) =    -14.00734  eV     2   --> A_1  G_1 D_1   
     e( 19 - 20) =    -14.00734  eV     2   --> B_1  G_3 D_2   
     e( 21 - 22) =    -14.00678  eV     2   --> A_1  G_1 D_1   
     e( 21 - 22) =    -14.00678  eV     2   --> B_1  G_3 D_2   
     e( 25 - 36) =    -13.96863  eV    12   -->   ?

 **************************************************************************

 **************************************************************************

                    xk=(   0.00000,   0.48333,   0.00000  )

     Band symmetry, C_4v (4mm)  point group:

     e(  1 -  2) =    -18.60259  eV     2   -->   2 A_1  G_1 D_1   
     e(  3 -  6) =    -18.60237  eV     4   -->   2 E    G_5 D_5   
     e(  7 -  8) =    -18.60217  eV     2   -->   2 B_2  G_4 D_2'  
     e(  9 - 10) =    -14.01973  eV     2   -->   2 B_1  G_3 D_2   
     e( 11 - 12) =    -14.01657  eV     2   --> A_1  G_1 D_1   
     e( 11 - 12) =    -14.01657  eV     2   --> B_1  G_3 D_2   
     e( 13 - 14) =    -14.01631  eV     2   --> A_1  G_1 D_1   
     e( 13 - 14) =    -14.01631  eV     2   --> B_1  G_3 D_2   
     e( 15 - 15) =    -14.01473  eV     1   --> A_1  G_1 D_1   
     e( 16 - 16) =    -14.01417  eV     1   --> A_1  G_1 D_1   
     e( 17 - 17) =    -14.00932  eV     1   --> A_1  G_1 D_1   
     e( 18 - 18) =    -14.00874  eV     1   --> A_1  G_1 D_1   
     e( 19 - 20) =    -14.00720  eV     2   --> A_1  G_1 D_1   
     e( 19 - 20) =    -14.00720  eV     2   --> B_1  G_3 D_2   
     e( 21 - 22) =    -14.00694  eV     2   --> A_1  G_1 D_1   
     e( 21 - 22) =    -14.00694  eV     2   --> B_1  G_3 D_2   
     e( 23 - 24) =    -14.00356  eV     2   -->   ?
     e( 25 - 36) =    -13.96858  eV    12   -->   ?

 **************************************************************************

 **************************************************************************

                    xk=(   0.00000,   0.50000,   0.00000  )

     point group D_4h(4/mmm)
     there are 10 classes
     the character table:

       E     2C4   C2    2C2'  2C2'' i     2S4   s_h   2s_v  2s_d 
A_1g   1.00  1.00  1.00  1.00  1.00  1.00  1.00  1.00  1.00  1.00
A_2g   1.00  1.00  1.00 -1.00 -1.00  1.00  1.00  1.00 -1.00 -1.00
B_1g   1.00 -1.00  1.00  1.00 -1.00  1.00 -1.00  1.00  1.00 -1.00
B_2g   1.00 -1.00  1.00 -1.00  1.00  1.00 -1.00  1.00 -1.00  1.00
E_g    2.00  0.00 -2.00  0.00  0.00  2.00  0.00 -2.00  0.00  0.00
A_1u   1.00  1.00  1.00  1.00  1.00 -1.00 -1.00 -1.00 -1.00 -1.00
A_2u   1.00  1.00  1.00 -1.00 -1.00 -1.00 -1.00 -1.00  1.00  1.00
B_1u   1.00 -1.00  1.00  1.00 -1.00 -1.00  1.00 -1.00 -1.00  1.00
B_2u   1.00 -1.00  1.00 -1.00  1.00 -1.00  1.00 -1.00  1.00 -1.00
E_u    2.00  0.00 -2.00  0.00  0.00 -2.00  0.00  2.00  0.00  0.00

     the symmetry operations in each class and the name of the first element:

     E        1
                                                                 
     2C4      7    8
                                                                 
     C2       3
                                                                 
     2C2'     2    4
                                                                 
     2C2''    5    6
                                                                 
     i        9
                                                                 
     2S4     15   16
                                                                 
     s_h     11
                                                                 
     2s_v    10   12
                                                                 
     2s_d    13   14
                                                                 

     Band symmetry, D_4h(4/mmm) point group:

     e(  1 -  2) =    -18.60258  eV     2   --> A_1g X_1  M_1  
     e(  1 -  2) =    -18.60258  eV     2   --> A_2u X_4' M_4' 
     e(  3 -  6) =    -18.60237  eV     4   --> E_g  X_5  M_5  
     e(  3 -  6) =    -18.60237  eV     4   --> E_u  X_5' M_5' 
     e(  7 -  8) =    -18.60216  eV     2   --> B_2g X_3  M_3  
     e(  7 -  8) =    -18.60216  eV     2   --> B_1u X_2' M_2' 
     e(  9 - 10) =    -14.01973  eV     2   --> B_1g X_2  M_2  
     e(  9 - 10) =    -14.01973  eV     2   --> B_2u X_3' M_3' 
     e( 11 - 14) =    -14.01645  eV     4   --> A_1g X_1  M_1  
     e( 11 - 14) =    -14.01645  eV     4   --> B_1g X_2  M_2  
     e( 11 - 14) =    -14.01645  eV     4   --> A_2u X_4' M_4' 
     e( 11 - 14) =    -14.01645  eV     4   --> B_2u X_3' M_3' 
     e( 15 - 16) =    -14.01445  eV     2   --> A_1g X_1  M_1  
     e( 15 - 16) =    -14.01445  eV     2   --> A_2u X_4' M_4' 
     e( 17 - 18) =    -14.00903  eV     2   --> A_1g X_1  M_1  
     e( 17 - 18) =    -14.00903  eV     2   --> A_2u X_4' M_4' 
     e( 19 - 22) =    -14.00710  eV     4   --> A_1g X_1  M_1  
     e( 19 - 22) =    -14.00710  eV     4   --> B_1g X_2  M_2  
     e( 19 - 22) =    -14.00710  eV     4   --> A_2u X_4' M_4' 
     e( 19 - 22) =    -14.00710  eV     4   --> B_2u X_3' M_3' 
     e( 23 - 24) =    -14.00357  eV     2   --> B_1g X_2  M_2  
     e( 23 - 24) =    -14.00357  eV     2   --> B_2u X_3' M_3' 
     e( 25 - 36) =    -13.96862  eV    12   -->   ?

 **************************************************************************

 **************************************************************************

                    xk=(   0.01667,   0.50000,   0.00000  )

     point group C_2v (mm2) 
     there are  4 classes
     the character table:

       E     C2    s_v   s_v' 
A_1    1.00  1.00  1.00  1.00
A_2    1.00  1.00 -1.00 -1.00
B_1    1.00 -1.00  1.00 -1.00
B_2    1.00 -1.00 -1.00  1.00

     the symmetry operations in each class and the name of the first element:

     E        1
                                                                 
     C2       2
                                                                 
     s_v      4
                                                                 
     s_v'     3
                                                                 

     Band symmetry, C_2v (mm2)  point group:

     e(  1 -  2) =    -18.60258  eV     2   --> A_1  D_1  S_1  
     e(  1 -  2) =    -18.60258  eV     2   --> B_2  D_4  S_4  
     e(  3 -  6) =    -18.60236  eV     4   --> A_1  D_1  S_1  
     e(  3 -  6) =    -18.60236  eV     4   --> A_2  D_2  S_2  
     e(  3 -  6) =    -18.60236  eV     4   --> B_1  D_3  S_3  
     e(  3 -  6) =    -18.60236  eV     4   --> B_2  D_4  S_4  
     e(  7 -  8) =    -18.60216  eV     2   --> A_2  D_2  S_2  
     e(  7 -  8) =    -18.60216  eV     2   --> B_1  D_3  S_3  
     e(  9 - 10) =    -14.01973  eV     2   --> A_1  D_1  S_1  
     e(  9 - 10) =    -14.01973  eV     2   --> B_2  D_4  S_4  
     e( 11 - 14) =    -14.01644  eV     4   -->   2 A_1  D_1  S_1  
     e( 11 - 14) =    -14.01644  eV     4   -->   2 B_2  D_4  S_4  
     e( 15 - 16) =    -14.01445  eV     2   --> A_1  D_1  S_1  
     e( 15 - 16) =    -14.01445  eV     2   --> B_2  D_4  S_4  
     e( 17 - 18) =    -14.00903  eV     2   --> A_1  D_1  S_1  
     e( 17 - 18) =    -14.00903  eV     2   --> B_2  D_4  S_4  
     e( 19 - 22) =    -14.00709  eV     4   -->   2 A_1  D_1  S_1  
     e( 19 - 22) =    -14.00709  eV     4   -->   2 B_2  D_4  S_4  
     e( 23 - 24) =    -14.00357  eV     2   --> A_1  D_1  S_1  
     e( 23 - 24) =    -14.00357  eV     2   --> B_2  D_4  S_4  
     e( 25 - 36) =    -13.96861  eV    12   -->   ?

 **************************************************************************

 **************************************************************************

                    xk=(   0.03333,   0.50000,   0.00000  )

     Band symmetry, C_2v (mm2)  point group:

     e(  1 -  2) =    -18.60258  eV     2   --> A_1  D_1  S_1  
     e(  1 -  2) =    -18.60258  eV     2   --> B_2  D_4  S_4  
     e(  3 -  6) =    -18.60236  eV     4   --> A_1  D_1  S_1  
     e(  3 -  6) =    -18.60236  eV     4   --> A_2  D_2  S_2  
     e(  3 -  6) =    -18.60236  eV     4   --> B_1  D_3  S_3  
     e(  3 -  6) =    -18.60236  eV     4   --> B_2  D_4  S_4  
     e(  7 -  8) =    -18.60216  eV     2   --> A_2  D_2  S_2  
     e(  7 -  8) =    -18.60216  eV     2   --> B_1  D_3  S_3  
     e(  9 - 10) =    -14.01972  eV     2   --> A_1  D_1  S_1  
     e(  9 - 10) =    -14.01972  eV     2   --> B_2  D_4  S_4  
     e( 11 - 14) =    -14.01644  eV     4   -->   2 A_1  D_1  S_1  
     e( 11 - 14) =    -14.01644  eV     4   -->   2 B_2  D_4  S_4  
     e( 15 - 16) =    -14.01445  eV     2   --> A_1  D_1  S_1  
     e( 15 - 16) =    -14.01445  eV     2   --> B_2  D_4  S_4  
     e( 17 - 18) =    -14.00904  eV     2   --> A_1  D_1  S_1  
     e( 17 - 18) =    -14.00904  eV     2   --> B_2  D_4  S_4  
     e( 19 - 22) =    -14.00711  eV     4   -->   2 A_1  D_1  S_1  
     e( 19 - 22) =    -14.00711  eV     4   -->   2 B_2  D_4  S_4  
     e( 23 - 24) =    -14.00359  eV     2   -->   ?
     e( 25 - 35) =    -13.96865  eV    11   -->   ?
     e( 36 - 36) =    -13.96816  eV     1   -->   ?

 **************************************************************************

 **************************************************************************

                    xk=(   0.05000,   0.50000,   0.00000  )

     Band symmetry, C_2v (mm2)  point group:

     e(  1 -  2) =    -18.60258  eV     2   --> A_1  D_1  S_1  
     e(  1 -  2) =    -18.60258  eV     2   --> B_2  D_4  S_4  
     e(  3 -  6) =    -18.60237  eV     4   --> A_1  D_1  S_1  
     e(  3 -  6) =    -18.60237  eV     4   --> A_2  D_2  S_2  
     e(  3 -  6) =    -18.60237  eV     4   --> B_1  D_3  S_3  
     e(  3 -  6) =    -18.60237  eV     4   --> B_2  D_4  S_4  
     e(  7 -  8) =    -18.60216  eV     2   --> A_2  D_2  S_2  
     e(  7 -  8) =    -18.60216  eV     2   --> B_1  D_3  S_3  
     e(  9 - 10) =    -14.01970  eV     2   --> A_1  D_1  S_1  
     e(  9 - 10) =    -14.01970  eV     2   --> B_2  D_4  S_4  
     e( 11 - 14) =    -14.01644  eV     4   -->   2 A_1  D_1  S_1  
     e( 11 - 14) =    -14.01644  eV     4   -->   2 B_2  D_4  S_4  
     e( 15 - 16) =    -14.01444  eV     2   --> A_1  D_1  S_1  
     e( 15 - 16) =    -14.01444  eV     2   --> B_2  D_4  S_4  
     e( 17 - 18) =    -14.00905  eV     2   --> A_1  D_1  S_1  
     e( 17 - 18) =    -14.00905  eV     2   --> B_2  D_4  S_4  
     e( 19 - 22) =    -14.00714  eV     4   -->   2 A_1  D_1  S_1  
     e( 19 - 22) =    -14.00714  eV     4   -->   2 B_2  D_4  S_4  
     e( 23 - 24) =    -14.00362  eV     2   --> A_1  D_1  S_1  
     e( 23 - 24) =    -14.00362  eV     2   --> B_2  D_4  S_4  
     e( 25 - 36) =    -13.96859  eV    12   -->   ?

 **************************************************************************

 **************************************************************************

                    xk=(   0.06667,   0.50000,   0.00000  )

     Band symmetry, C_2v (mm2)  point group:

     e(  1 -  2) =    -18.60258  eV     2   --> A_1  D_1  S_1  
     e(  1 -  2) =    -18.60258  eV     2   --> B_2  D_4  S_4  
     e(  3 -  6) =    -18.60237  eV     4   --> A_1  D_1  S_1  
     e(  3 -  6) =    -18.60237  eV     4   --> A_2  D_2  S_2  
     e(  3 -  6) =    -18.60237  eV     4   --> B_1  D_3  S_3  
     e(  3 -  6) =    -18.60237  eV     4   --> B_2  D_4  S_4  
     e(  7 -  8) =    -18.60216  eV     2   --> A_2  D_2  S_2  
     e(  7 -  8) =    -18.60216  eV     2   --> B_1  D_3  S_3  
     e(  9 - 10) =    -14.01968  eV     2   --> A_1  D_1  S_1  
     e(  9 - 10) =    -14.01968  eV     2   --> B_2  D_4  S_4  
     e( 11 - 12) =    -14.01644  eV     2   --> A_1  D_1  S_1  
     e( 11 - 12) =    -14.01644  eV     2   --> B_2  D_4  S_4  
     e( 13 - 14) =    -14.01632  eV     2   --> A_1  D_1  S_1  
     e( 13 - 14) =    -14.01632  eV     2   --> B_2  D_4  S_4  
     e( 15 - 16) =    -14.01444  eV     2   --> A_1  D_1  S_1  
     e( 15 - 16) =    -14.01444  eV     2   --> B_2  D_4  S_4  
     e( 17 - 18) =    -14.00907  eV     2   --> A_1  D_1  S_1  
     e( 17 - 18) =    -14.00907  eV     2   --> B_2  D_4  S_4  
     e( 19 - 20) =    -14.00717  eV     2   --> A_1  D_1  S_1  
     e( 19 - 20) =    -14.00717  eV     2   --> B_2  D_4  S_4  
     e( 21 - 22) =    -14.00707  eV     2   --> A_1  D_1  S_1  
     e( 21 - 22) =    -14.00707  eV     2   --> B_2  D_4  S_4  
     e( 23 - 24) =    -14.00367  eV     2   --> A_1  D_1  S_1  
     e( 23 - 24) =    -14.00367  eV     2   --> B_2  D_4  S_4  
     e( 25 - 36) =    -13.96864  eV    12   -->   ?

 **************************************************************************

 **************************************************************************

                    xk=(   0.08333,   0.50000,   0.00000  )

     Band symmetry, C_2v (mm2)  point group:

     e(  1 -  2) =    -18.60258  eV     2   --> A_1  D_1  S_1  
     e(  1 -  2) =    -18.60258  eV     2   --> B_2  D_4  S_4  
     e(  3 -  6) =    -18.60237  eV     4   --> A_1  D_1  S_1  
     e(  3 -  6) =    -18.60237  eV     4   --> A_2  D_2  S_2  
     e(  3 -  6) =    -18.60237  eV     4   --> B_1  D_3  S_3  
     e(  3 -  6) =    -18.60237  eV     4   --> B_2  D_4  S_4  
     e(  7 -  8) =    -18.60217  eV     2   --> A_2  D_2  S_2  
     e(  7 -  8) =    -18.60217  eV     2   --> B_1  D_3  S_3  
     e(  9 - 10) =    -14.01963  eV     2   --> A_1  D_1  S_1  
     e(  9 - 10) =    -14.01963  eV     2   --> B_2  D_4  S_4  
     e( 11 - 12) =    -14.01643  eV     2   --> A_1  D_1  S_1  
     e( 11 - 12) =    -14.01643  eV     2   --> B_2  D_4  S_4  
     e( 13 - 14) =    -14.01626  eV     2   --> A_1  D_1  S_1  
     e( 13 - 14) =    -14.01626  eV     2   --> B_2  D_4  S_4  
     e( 15 - 16) =    -14.01442  eV     2   --> A_1  D_1  S_1  
     e( 15 - 16) =    -14.01442  eV     2   --> B_2  D_4  S_4  
     e( 17 - 18) =    -14.00908  eV     2   --> A_1  D_1  S_1  
     e( 17 - 18) =    -14.00908  eV     2   --> B_2  D_4  S_4  
     e( 19 - 20) =    -14.00723  eV     2   --> A_1  D_1  S_1  
     e( 19 - 20) =    -14.00723  eV     2   -->   ?
     e( 21 - 22) =    -14.00706  eV     2   -->   ?
     e( 23 - 24) =    -14.00371  eV     2   --> A_1  D_1  S_1  
     e( 23 - 24) =    -14.00371  eV     2   --> B_2  D_4  S_4  
     e( 25 - 36) =    -13.96862  eV    12   -->   ?

 **************************************************************************

 **************************************************************************

                    xk=(   0.10000,   0.50000,   0.00000  )

     Band symmetry, C_2v (mm2)  point group:

     e(  1 -  2) =    -18.60258  eV     2   --> A_1  D_1  S_1  
     e(  1 -  2) =    -18.60258  eV     2   --> B_2  D_4  S_4  
     e(  3 -  6) =    -18.60237  eV     4   --> A_1  D_1  S_1  
     e(  3 -  6) =    -18.60237  eV     4   --> A_2  D_2  S_2  
     e(  3 -  6) =    -18.60237  eV     4   --> B_1  D_3  S_3  
     e(  3 -  6) =    -18.60237  eV     4   --> B_2  D_4  S_4  
     e(  7 -  8) =    -18.60217  eV     2   --> A_2  D_2  S_2  
     e(  7 -  8) =    -18.60217  eV     2   --> B_1  D_3  S_3  
     e(  9 - 10) =    -14.01957  eV     2   --> A_1  D_1  S_1  
     e(  9 - 10) =    -14.01957  eV     2   --> B_2  D_4  S_4  
     e( 11 - 12) =    -14.01643  eV     2   --> A_1  D_1  S_1  
     e( 11 - 12) =    -14.01643  eV     2   --> B_2  D_4  S_4  
     e( 13 - 14) =    -14.01617  eV     2   --> A_1  D_1  S_1  
     e( 13 - 14) =    -14.01617  eV     2   --> B_2  D_4  S_4  
     e( 15 - 16) =    -14.01439  eV     2   --> A_1  D_1  S_1  
     e( 15 - 16) =    -14.01439  eV     2   --> B_2  D_4  S_4  
     e( 17 - 18) =    -14.00911  eV     2   --> A_1  D_1  S_1  
     e( 17 - 18) =    -14.00911  eV     2   --> B_2  D_4  S_4  
     e( 19 - 20) =    -14.00729  eV     2   --> A_1  D_1  S_1  
     e( 19 - 20) =    -14.00729  eV     2   --> B_2  D_4  S_4  
     e( 21 - 22) =    -14.00705  eV     2   --> A_1  D_1  S_1  
     e( 21 - 22) =    -14.00705  eV     2   --> B_2  D_4  S_4  
     e( 23 - 24) =    -14.00377  eV     2   -->   ?
     e( 25 - 36) =    -13.96864  eV    12   -->   ?

 **************************************************************************

 **************************************************************************

                    xk=(   0.11667,   0.50000,   0.00000  )

     Band symmetry, C_2v (mm2)  point group:

     e(  1 -  2) =    -18.60257  eV     2   --> A_1  D_1  S_1  
     e(  1 -  2) =    -18.60257  eV     2   --> B_2  D_4  S_4  
     e(  3 -  6) =    -18.60237  eV     4   --> A_1  D_1  S_1  
     e(  3 -  6) =    -18.60237  eV     4   --> A_2  D_2  S_2  
     e(  3 -  6) =    -18.60237  eV     4   --> B_1  D_3  S_3  
     e(  3 -  6) =    -18.60237  eV     4   --> B_2  D_4  S_4  
     e(  7 -  8) =    -18.60217  eV     2   --> A_2  D_2  S_2  
     e(  7 -  8) =    -18.60217  eV     2   --> B_1  D_3  S_3  
     e(  9 - 10) =    -14.01952  eV     2   --> A_1  D_1  S_1  
     e(  9 - 10) =    -14.01952  eV     2   --> B_2  D_4  S_4  
     e( 11 - 12) =    -14.01645  eV     2   --> A_1  D_1  S_1  
     e( 11 - 12) =    -14.01645  eV     2   --> B_2  D_4  S_4  
     e( 13 - 14) =    -14.01608  eV     2   --> A_1  D_1  S_1  
     e( 13 - 14) =    -14.01608  eV     2   --> B_2  D_4  S_4  
     e( 15 - 16) =    -14.01437  eV     2   --> A_1  D_1  S_1  
     e( 15 - 16) =    -14.01437  eV     2   --> B_2  D_4  S_4  
     e( 17 - 18) =    -14.00913  eV     2   --> A_1  D_1  S_1  
     e( 17 - 18) =    -14.00913  eV     2   --> B_2  D_4  S_4  
     e( 19 - 20) =    -14.00739  eV     2   --> A_1  D_1  S_1  
     e( 19 - 20) =    -14.00739  eV     2   --> B_2  D_4  S_4  
     e( 21 - 22) =    -14.00704  eV     2   --> A_1  D_1  S_1  
     e( 21 - 22) =    -14.00704  eV     2   --> B_2  D_4  S_4  
     e( 23 - 24) =    -14.00384  eV     2   --> A_1  D_1  S_1  
     e( 23 - 24) =    -14.00384  eV     2   --> B_2  D_4  S_4  
     e( 25 - 25) =    -13.96866  eV     1   -->   ?
     e( 26 - 36) =    -13.96855  eV    11   -->   ?

 **************************************************************************

 **************************************************************************

                    xk=(   0.13333,   0.50000,   0.00000  )

     Band symmetry, C_2v (mm2)  point group:

     e(  1 -  2) =    -18.60257  eV     2   --> A_1  D_1  S_1  
     e(  1 -  2) =    -18.60257  eV     2   --> B_2  D_4  S_4  
     e(  3 -  6) =    -18.60237  eV     4   --> A_1  D_1  S_1  
     e(  3 -  6) =    -18.60237  eV     4   --> A_2  D_2  S_2  
     e(  3 -  6) =    -18.60237  eV     4   --> B_1  D_3  S_3  
     e(  3 -  6) =    -18.60237  eV     4   --> B_2  D_4  S_4  
     e(  7 -  8) =    -18.60217  eV     2   --> A_2  D_2  S_2  
     e(  7 -  8) =    -18.60217  eV     2   --> B_1  D_3  S_3  
     e(  9 - 10) =    -14.01944  eV     2   --> A_1  D_1  S_1  
     e(  9 - 10) =    -14.01944  eV     2   --> B_2  D_4  S_4  
     e( 11 - 12) =    -14.01646  eV     2   --> A_1  D_1  S_1  
     e( 11 - 12) =    -14.01646  eV     2   --> B_2  D_4  S_4  
     e( 13 - 14) =    -14.01598  eV     2   --> A_1  D_1  S_1  
     e( 13 - 14) =    -14.01598  eV     2   --> B_2  D_4  S_4  
     e( 15 - 16) =    -14.01433  eV     2   --> A_1  D_1  S_1  
     e( 15 - 16) =    -14.01433  eV     2   --> B_2  D_4  S_4  
     e( 17 - 18) =    -14.00917  eV     2   --> A_1  D_1  S_1  
     e( 17 - 18) =    -14.00917  eV     2   --> B_2  D_4  S_4  
     e( 19 - 20) =    -14.00750  eV     2   --> A_1  D_1  S_1  
     e( 19 - 20) =    -14.00750  eV     2   --> B_2  D_4  S_4  
     e( 21 - 22) =    -14.00703  eV     2   --> A_1  D_1  S_1  
     e( 21 - 22) =    -14.00703  eV     2   --> B_2  D_4  S_4  
     e( 23 - 24) =    -14.00393  eV     2   --> A_1  D_1  S_1  
     e( 23 - 24) =    -14.00393  eV     2   --> B_2  D_4  S_4  
     e( 25 - 36) =    -13.96864  eV    12   -->   ?

 **************************************************************************

 **************************************************************************

                    xk=(   0.15000,   0.50000,   0.00000  )

     Band symmetry, C_2v (mm2)  point group:

     e(  1 -  2) =    -18.60257  eV     2   --> A_1  D_1  S_1  
     e(  1 -  2) =    -18.60257  eV     2   --> B_2  D_4  S_4  
     e(  3 -  6) =    -18.60238  eV     4   --> A_1  D_1  S_1  
     e(  3 -  6) =    -18.60238  eV     4   --> A_2  D_2  S_2  
     e(  3 -  6) =    -18.60238  eV     4   --> B_1  D_3  S_3  
     e(  3 -  6) =    -18.60238  eV     4   --> B_2  D_4  S_4  
     e(  7 -  8) =    -18.60217  eV     2   --> A_2  D_2  S_2  
     e(  7 -  8) =    -18.60217  eV     2   --> B_1  D_3  S_3  
     e(  9 - 10) =    -14.01934  eV     2   --> A_1  D_1  S_1  
     e(  9 - 10) =    -14.01934  eV     2   --> B_2  D_4  S_4  
     e( 11 - 12) =    -14.01647  eV     2   --> A_1  D_1  S_1  
     e( 11 - 12) =    -14.01647  eV     2   --> B_2  D_4  S_4  
     e( 13 - 14) =    -14.01586  eV     2   --> A_1  D_1  S_1  
     e( 13 - 14) =    -14.01586  eV     2   --> B_2  D_4  S_4  
     e( 15 - 16) =    -14.01430  eV     2   --> A_1  D_1  S_1  
     e( 15 - 16) =    -14.01430  eV     2   --> B_2  D_4  S_4  
     e( 17 - 18) =    -14.00920  eV     2   --> A_1  D_1  S_1  
     e( 17 - 18) =    -14.00920  eV     2   --> B_2  D_4  S_4  
     e( 19 - 20) =    -14.00762  eV     2   --> A_1  D_1  S_1  
     e( 19 - 20) =    -14.00762  eV     2   --> B_2  D_4  S_4  
     e( 21 - 22) =    -14.00702  eV     2   --> A_1  D_1  S_1  
     e( 21 - 22) =    -14.00702  eV     2   --> B_2  D_4  S_4  
     e( 23 - 24) =    -14.00402  eV     2   --> A_1  D_1  S_1  
     e( 23 - 24) =    -14.00402  eV     2   --> B_2  D_4  S_4  
     e( 25 - 36) =    -13.96863  eV    12   -->   ?

 **************************************************************************

 **************************************************************************

                    xk=(   0.16667,   0.50000,   0.00000  )

     Band symmetry, C_2v (mm2)  point group:

     e(  1 -  2) =    -18.60257  eV     2   --> A_1  D_1  S_1  
     e(  1 -  2) =    -18.60257  eV     2   --> B_2  D_4  S_4  
     e(  3 -  6) =    -18.60238  eV     4   --> A_1  D_1  S_1  
     e(  3 -  6) =    -18.60238  eV     4   --> A_2  D_2  S_2  
     e(  3 -  6) =    -18.60238  eV     4   --> B_1  D_3  S_3  
     e(  3 -  6) =    -18.60238  eV     4   --> B_2  D_4  S_4  
     e(  7 -  8) =    -18.60218  eV     2   --> A_2  D_2  S_2  
     e(  7 -  8) =    -18.60218  eV     2   --> B_1  D_3  S_3  
     e(  9 - 10) =    -14.01925  eV     2   --> A_1  D_1  S_1  
     e(  9 - 10) =    -14.01925  eV     2   --> B_2  D_4  S_4  
     e( 11 - 12) =    -14.01648  eV     2   --> A_1  D_1  S_1  
     e( 11 - 12) =    -14.01648  eV     2   --> B_2  D_4  S_4  
     e( 13 - 14) =    -14.01576  eV     2   --> A_1  D_1  S_1  
     e( 13 - 14) =    -14.01576  eV     2   --> B_2  D_4  S_4  
     e( 15 - 16) =    -14.01425  eV     2   --> A_1  D_1  S_1  
     e( 15 - 16) =    -14.01425  eV     2   --> B_2  D_4  S_4  
     e( 17 - 18) =    -14.00925  eV     2   --> A_1  D_1  S_1  
     e( 17 - 18) =    -14.00925  eV     2   --> B_2  D_4  S_4  
     e( 19 - 20) =    -14.00774  eV     2   --> A_1  D_1  S_1  
     e( 19 - 20) =    -14.00774  eV     2   --> B_2  D_4  S_4  
     e( 21 - 22) =    -14.00701  eV     2   --> A_1  D_1  S_1  
     e( 21 - 22) =    -14.00701  eV     2   --> B_2  D_4  S_4  
     e( 23 - 24) =    -14.00412  eV     2   --> A_1  D_1  S_1  
     e( 23 - 24) =    -14.00412  eV     2   --> B_2  D_4  S_4  
     e( 25 - 36) =    -13.96864  eV    12   -->   ?

 **************************************************************************

 **************************************************************************

                    xk=(   0.18333,   0.50000,   0.00000  )

     Band symmetry, C_2v (mm2)  point group:

     e(  1 -  2) =    -18.60256  eV     2   --> A_1  D_1  S_1  
     e(  1 -  2) =    -18.60256  eV     2   --> B_2  D_4  S_4  
     e(  3 -  6) =    -18.60238  eV     4   --> A_1  D_1  S_1  
     e(  3 -  6) =    -18.60238  eV     4   --> A_2  D_2  S_2  
     e(  3 -  6) =    -18.60238  eV     4   --> B_1  D_3  S_3  
     e(  3 -  6) =    -18.60238  eV     4   --> B_2  D_4  S_4  
     e(  7 -  8) =    -18.60218  eV     2   --> A_2  D_2  S_2  
     e(  7 -  8) =    -18.60218  eV     2   --> B_1  D_3  S_3  
     e(  9 - 10) =    -14.01915  eV     2   --> A_1  D_1  S_1  
     e(  9 - 10) =    -14.01915  eV     2   --> B_2  D_4  S_4  
     e( 11 - 12) =    -14.01649  eV     2   --> A_1  D_1  S_1  
     e( 11 - 12) =    -14.01649  eV     2   --> B_2  D_4  S_4  
     e( 13 - 14) =    -14.01561  eV     2   --> A_1  D_1  S_1  
     e( 13 - 14) =    -14.01561  eV     2   --> B_2  D_4  S_4  
     e( 15 - 16) =    -14.01421  eV     2   --> A_1  D_1  S_1  
     e( 15 - 16) =    -14.01421  eV     2   --> B_2  D_4  S_4  
     e( 17 - 18) =    -14.00929  eV     2   --> A_1  D_1  S_1  
     e( 17 - 18) =    -14.00929  eV     2   --> B_2  D_4  S_4  
     e( 19 - 20) =    -14.00788  eV     2   --> A_1  D_1  S_1  
     e( 19 - 20) =    -14.00788  eV     2   --> B_2  D_4  S_4  
     e( 21 - 22) =    -14.00699  eV     2   --> A_1  D_1  S_1  
     e( 21 - 22) =    -14.00699  eV     2   --> B_2  D_4  S_4  
     e( 23 - 24) =    -14.00422  eV     2   --> A_1  D_1  S_1  
     e( 23 - 24) =    -14.00422  eV     2   --> B_2  D_4  S_4  
     e( 25 - 36) =    -13.96863  eV    12   -->   ?

 **************************************************************************

 **************************************************************************

                    xk=(   0.20000,   0.50000,   0.00000  )

     Band symmetry, C_2v (mm2)  point group:

     e(  1 -  2) =    -18.60256  eV     2   --> A_1  D_1  S_1  
     e(  1 -  2) =    -18.60256  eV     2   --> B_2  D_4  S_4  
     e(  3 -  6) =    -18.60239  eV     4   --> A_1  D_1  S_1  
     e(  3 -  6) =    -18.60239  eV     4   --> A_2  D_2  S_2  
     e(  3 -  6) =    -18.60239  eV     4   --> B_1  D_3  S_3  
     e(  3 -  6) =    -18.60239  eV     4   --> B_2  D_4  S_4  
     e(  7 -  8) =    -18.60218  eV     2   --> A_2  D_2  S_2  
     e(  7 -  8) =    -18.60218  eV     2   --> B_1  D_3  S_3  
     e(  9 - 10) =    -14.01904  eV     2   --> A_1  D_1  S_1  
     e(  9 - 10) =    -14.01904  eV     2   --> B_2  D_4  S_4  
     e( 11 - 12) =    -14.01651  eV     2   --> A_1  D_1  S_1  
     e( 11 - 12) =    -14.01651  eV     2   --> B_2  D_4  S_4  
     e( 13 - 14) =    -14.01546  eV     2   --> A_1  D_1  S_1  
     e( 13 - 14) =    -14.01546  eV     2   --> B_2  D_4  S_4  
     e( 15 - 16) =    -14.01415  eV     2   --> A_1  D_1  S_1  
     e( 15 - 16) =    -14.01415  eV     2   --> B_2  D_4  S_4  
     e( 17 - 18) =    -14.00934  eV     2   --> A_1  D_1  S_1  
     e( 17 - 18) =    -14.00934  eV     2   --> B_2  D_4  S_4  
     e( 19 - 20) =    -14.00804  eV     2   --> A_1  D_1  S_1  
     e( 19 - 20) =    -14.00804  eV     2   --> B_2  D_4  S_4  
     e( 21 - 22) =    -14.00697  eV     2   --> A_1  D_1  S_1  
     e( 21 - 22) =    -14.00697  eV     2   --> B_2  D_4  S_4  
     e( 23 - 24) =    -14.00432  eV     2   --> A_1  D_1  S_1  
     e( 23 - 24) =    -14.00432  eV     2   --> B_2  D_4  S_4  
     e( 25 - 36) =    -13.96857  eV    12   -->   ?

 **************************************************************************

 **************************************************************************

                    xk=(   0.21667,   0.50000,   0.00000  )

     Band symmetry, C_2v (mm2)  point group:

     e(  1 -  2) =    -18.60256  eV     2   --> A_1  D_1  S_1  
     e(  1 -  2) =    -18.60256  eV     2   --> B_2  D_4  S_4  
     e(  3 -  6) =    -18.60239  eV     4   --> A_1  D_1  S_1  
     e(  3 -  6) =    -18.60239  eV     4   --> A_2  D_2  S_2  
     e(  3 -  6) =    -18.60239  eV     4   --> B_1  D_3  S_3  
     e(  3 -  6) =    -18.60239  eV     4   --> B_2  D_4  S_4  
     e(  7 -  8) =    -18.60219  eV     2   --> A_2  D_2  S_2  
     e(  7 -  8) =    -18.60219  eV     2   --> B_1  D_3  S_3  
     e(  9 - 10) =    -14.01894  eV     2   --> A_1  D_1  S_1  
     e(  9 - 10) =    -14.01894  eV     2   --> B_2  D_4  S_4  
     e( 11 - 12) =    -14.01652  eV     2   --> A_1  D_1  S_1  
     e( 11 - 12) =    -14.01652  eV     2   --> B_2  D_4  S_4  
     e( 13 - 14) =    -14.01529  eV     2   --> A_1  D_1  S_1  
     e( 13 - 14) =    -14.01529  eV     2   --> B_2  D_4  S_4  
     e( 15 - 16) =    -14.01409  eV     2   --> A_1  D_1  S_1  
     e( 15 - 16) =    -14.01409  eV     2   --> B_2  D_4  S_4  
     e( 17 - 18) =    -14.00940  eV     2   --> A_1  D_1  S_1  
     e( 17 - 18) =    -14.00940  eV     2   --> B_2  D_4  S_4  
     e( 19 - 20) =    -14.00820  eV     2   --> A_1  D_1  S_1  
     e( 19 - 20) =    -14.00820  eV     2   --> B_2  D_4  S_4  
     e( 21 - 22) =    -14.00696  eV     2   --> A_1  D_1  S_1  
     e( 21 - 22) =    -14.00696  eV     2   --> B_2  D_4  S_4  
     e( 23 - 24) =    -14.00445  eV     2   --> A_1  D_1  S_1  
     e( 23 - 24) =    -14.00445  eV     2   --> B_2  D_4  S_4  
     e( 25 - 36) =    -13.96862  eV    12   -->   ?

 **************************************************************************

 **************************************************************************

                    xk=(   0.23333,   0.50000,   0.00000  )

     Band symmetry, C_2v (mm2)  point group:

     e(  1 -  2) =    -18.60255  eV     2   --> A_1  D_1  S_1  
     e(  1 -  2) =    -18.60255  eV     2   --> B_2  D_4  S_4  
     e(  3 -  6) =    -18.60239  eV     4   --> A_1  D_1  S_1  
     e(  3 -  6) =    -18.60239  eV     4   --> A_2  D_2  S_2  
     e(  3 -  6) =    -18.60239  eV     4   --> B_1  D_3  S_3  
     e(  3 -  6) =    -18.60239  eV     4   --> B_2  D_4  S_4  
     e(  7 -  8) =    -18.60219  eV     2   --> A_2  D_2  S_2  
     e(  7 -  8) =    -18.60219  eV     2   --> B_1  D_3  S_3  
     e(  9 - 10) =    -14.01883  eV     2   --> A_1  D_1  S_1  
     e(  9 - 10) =    -14.01883  eV     2   --> B_2  D_4  S_4  
     e( 11 - 12) =    -14.01653  eV     2   --> A_1  D_1  S_1  
     e( 11 - 12) =    -14.01653  eV     2   --> B_2  D_4  S_4  
     e( 13 - 14) =    -14.01512  eV     2   --> A_1  D_1  S_1  
     e( 13 - 14) =    -14.01512  eV     2   --> B_2  D_4  S_4  
     e( 15 - 16) =    -14.01403  eV     2   --> A_1  D_1  S_1  
     e( 15 - 16) =    -14.01403  eV     2   --> B_2  D_4  S_4  
     e( 17 - 18) =    -14.00946  eV     2   --> A_1  D_1  S_1  
     e( 17 - 18) =    -14.00946  eV     2   --> B_2  D_4  S_4  
     e( 19 - 20) =    -14.00836  eV     2   --> A_1  D_1  S_1  
     e( 19 - 20) =    -14.00836  eV     2   --> B_2  D_4  S_4  
     e( 21 - 22) =    -14.00694  eV     2   --> A_1  D_1  S_1  
     e( 21 - 22) =    -14.00694  eV     2   --> B_2  D_4  S_4  
     e( 23 - 24) =    -14.00457  eV     2   --> A_1  D_1  S_1  
     e( 23 - 24) =    -14.00457  eV     2   --> B_2  D_4  S_4  
     e( 25 - 36) =    -13.96861  eV    12   -->   ?

 **************************************************************************

 **************************************************************************

                    xk=(   0.25000,   0.50000,   0.00000  )

     Band symmetry, C_2v (mm2)  point group:

     e(  1 -  2) =    -18.60255  eV     2   --> A_1  D_1  S_1  
     e(  1 -  2) =    -18.60255  eV     2   --> B_2  D_4  S_4  
     e(  3 -  6) =    -18.60240  eV     4   --> A_1  D_1  S_1  
     e(  3 -  6) =    -18.60240  eV     4   --> A_2  D_2  S_2  
     e(  3 -  6) =    -18.60240  eV     4   --> B_1  D_3  S_3  
     e(  3 -  6) =    -18.60240  eV     4   --> B_2  D_4  S_4  
     e(  7 -  8) =    -18.60219  eV     2   --> A_2  D_2  S_2  
     e(  7 -  8) =    -18.60219  eV     2   --> B_1  D_3  S_3  
     e(  9 - 10) =    -14.01872  eV     2   --> A_1  D_1  S_1  
     e(  9 - 10) =    -14.01872  eV     2   --> B_2  D_4  S_4  
     e( 11 - 12) =    -14.01655  eV     2   --> A_1  D_1  S_1  
     e( 11 - 12) =    -14.01655  eV     2   --> B_2  D_4  S_4  
     e( 13 - 14) =    -14.01496  eV     2   --> A_1  D_1  S_1  
     e( 13 - 14) =    -14.01496  eV     2   --> B_2  D_4  S_4  
     e( 15 - 16) =    -14.01396  eV     2   --> A_1  D_1  S_1  
     e( 15 - 16) =    -14.01396  eV     2   --> B_2  D_4  S_4  
     e( 17 - 18) =    -14.00953  eV     2   --> A_1  D_1  S_1  
     e( 17 - 18) =    -14.00953  eV     2   --> B_2  D_4  S_4  
     e( 19 - 20) =    -14.00854  eV     2   --> A_1  D_1  S_1  
     e( 19 - 20) =    -14.00854  eV     2   --> B_2  D_4  S_4  
     e( 21 - 22) =    -14.00693  eV     2   --> A_1  D_1  S_1  
     e( 21 - 22) =    -14.00693  eV     2   --> B_2  D_4  S_4  
     e( 23 - 24) =    -14.00468  eV     2   --> A_1  D_1  S_1  
     e( 23 - 24) =    -14.00468  eV     2   --> B_2  D_4  S_4  
     e( 25 - 36) =    -13.96861  eV    12   -->   ?

 **************************************************************************

 **************************************************************************

                    xk=(   0.26667,   0.50000,   0.00000  )

     Band symmetry, C_2v (mm2)  point group:

     e(  1 -  2) =    -18.60254  eV     2   --> A_1  D_1  S_1  
     e(  1 -  2) =    -18.60254  eV     2   --> B_2  D_4  S_4  
     e(  3 -  6) =    -18.60240  eV     4   --> A_1  D_1  S_1  
     e(  3 -  6) =    -18.60240  eV     4   --> A_2  D_2  S_2  
     e(  3 -  6) =    -18.60240  eV     4   --> B_1  D_3  S_3  
     e(  3 -  6) =    -18.60240  eV     4   --> B_2  D_4  S_4  
     e(  7 -  8) =    -18.60220  eV     2   --> A_2  D_2  S_2  
     e(  7 -  8) =    -18.60220  eV     2   --> B_1  D_3  S_3  
     e(  9 - 10) =    -14.01858  eV     2   --> A_1  D_1  S_1  
     e(  9 - 10) =    -14.01858  eV     2   --> B_2  D_4  S_4  
     e( 11 - 12) =    -14.01657  eV     2   --> A_1  D_1  S_1  
     e( 11 - 12) =    -14.01657  eV     2   --> B_2  D_4  S_4  
     e( 13 - 14) =    -14.01476  eV     2   --> A_1  D_1  S_1  
     e( 13 - 14) =    -14.01476  eV     2   --> B_2  D_4  S_4  
[...]
     e( 25 - 36) =    -13.96850  eV    12   -->   ?

 **************************************************************************

 **************************************************************************

                    xk=(   0.50000,   0.50000,   0.21667  )

     Band symmetry, C_4v (4mm)  point group:

     e(  1 -  4) =    -18.60245  eV     4   --> A_1  G_1 D_1   
     e(  1 -  4) =    -18.60245  eV     4   --> B_2  G_4 D_2'  
     e(  1 -  4) =    -18.60245  eV     4   --> E    G_5 D_5   
     e(  5 -  8) =    -18.60228  eV     4   --> A_1  G_1 D_1   
     e(  5 -  8) =    -18.60228  eV     4   --> B_2  G_4 D_2'  
     e(  5 -  8) =    -18.60228  eV     4   --> E    G_5 D_5   
     e(  9 - 12) =    -14.01593  eV     4   --> A_1  G_1 D_1   
     e(  9 - 12) =    -14.01593  eV     4   --> B_2  G_4 D_2'  
     e(  9 - 12) =    -14.01593  eV     4   --> E    G_5 D_5   
     e( 21 - 24) =    -14.00753  eV     4   --> A_1  G_1 D_1   
     e( 21 - 24) =    -14.00753  eV     4   --> B_2  G_4 D_2'  
     e( 21 - 24) =    -14.00753  eV     4   --> E    G_5 D_5   
     e( 25 - 36) =    -13.96851  eV    12   -->   ?

 **************************************************************************

 **************************************************************************

                    xk=(   0.50000,   0.50000,   0.20000  )

     Band symmetry, C_4v (4mm)  point group:

     e(  1 -  4) =    -18.60245  eV     4   --> A_1  G_1 D_1   
     e(  1 -  4) =    -18.60245  eV     4   --> B_2  G_4 D_2'  
     e(  1 -  4) =    -18.60245  eV     4   --> E    G_5 D_5   
     e(  5 -  8) =    -18.60228  eV     4   --> A_1  G_1 D_1   
     e(  5 -  8) =    -18.60228  eV     4   --> B_2  G_4 D_2'  
     e(  5 -  8) =    -18.60228  eV     4   --> E    G_5 D_5   
     e(  9 - 12) =    -14.01610  eV     4   --> A_1  G_1 D_1   
     e(  9 - 12) =    -14.01610  eV     4   --> B_2  G_4 D_2'  
     e(  9 - 12) =    -14.01610  eV     4   --> E    G_5 D_5   
     e( 13 - 20) =    -14.01176  eV     8   -->   2 A_2  G_2 D_1'  
     e( 13 - 20) =    -14.01176  eV     8   -->   2 B_1  G_3 D_2   
     e( 13 - 20) =    -14.01176  eV     8   -->   2 E    G_5 D_5   
     e( 21 - 24) =    -14.00736  eV     4   --> A_1  G_1 D_1   
     e( 21 - 24) =    -14.00736  eV     4   --> B_2  G_4 D_2'  
     e( 21 - 24) =    -14.00736  eV     4   --> E    G_5 D_5   
     e( 25 - 36) =    -13.96852  eV    12   -->   ?

 **************************************************************************

 **************************************************************************

                    xk=(   0.50000,   0.50000,   0.18333  )

     Band symmetry, C_4v (4mm)  point group:

     e(  1 -  4) =    -18.60245  eV     4   --> A_1  G_1 D_1   
     e(  1 -  4) =    -18.60245  eV     4   --> B_2  G_4 D_2'  
     e(  1 -  4) =    -18.60245  eV     4   --> E    G_5 D_5   
     e(  5 -  8) =    -18.60228  eV     4   --> A_1  G_1 D_1   
     e(  5 -  8) =    -18.60228  eV     4   --> B_2  G_4 D_2'  
     e(  5 -  8) =    -18.60228  eV     4   --> E    G_5 D_5   
     e(  9 - 12) =    -14.01626  eV     4   --> A_1  G_1 D_1   
     e(  9 - 12) =    -14.01626  eV     4   --> B_2  G_4 D_2'  
     e(  9 - 12) =    -14.01626  eV     4   --> E    G_5 D_5   
     e( 13 - 20) =    -14.01176  eV     8   -->   2 A_2  G_2 D_1'  
     e( 13 - 20) =    -14.01176  eV     8   -->   2 B_1  G_3 D_2   
     e( 13 - 20) =    -14.01176  eV     8   -->   2 E    G_5 D_5   
     e( 21 - 24) =    -14.00721  eV     4   --> A_1  G_1 D_1   
     e( 21 - 24) =    -14.00721  eV     4   --> B_2  G_4 D_2'  
     e( 21 - 24) =    -14.00721  eV     4   --> E    G_5 D_5   
     e( 25 - 36) =    -13.96853  eV    12   -->   ?

 **************************************************************************

 **************************************************************************

                    xk=(   0.50000,   0.50000,   0.16667  )

     Band symmetry, C_4v (4mm)  point group:

     e(  1 -  4) =    -18.60246  eV     4   --> A_1  G_1 D_1   
     e(  1 -  4) =    -18.60246  eV     4   --> B_2  G_4 D_2'  
     e(  1 -  4) =    -18.60246  eV     4   --> E    G_5 D_5   
     e(  5 -  8) =    -18.60228  eV     4   --> A_1  G_1 D_1   
     e(  5 -  8) =    -18.60228  eV     4   --> B_2  G_4 D_2'  
     e(  5 -  8) =    -18.60228  eV     4   --> E    G_5 D_5   
     e(  9 - 12) =    -14.01641  eV     4   --> A_1  G_1 D_1   
     e(  9 - 12) =    -14.01641  eV     4   --> B_2  G_4 D_2'  
     e(  9 - 12) =    -14.01641  eV     4   --> E    G_5 D_5   
     e( 13 - 20) =    -14.01176  eV     8   -->   2 A_2  G_2 D_1'  
     e( 13 - 20) =    -14.01176  eV     8   -->   2 B_1  G_3 D_2   
     e( 13 - 20) =    -14.01176  eV     8   -->   2 E    G_5 D_5   
     e( 21 - 24) =    -14.00705  eV     4   --> A_1  G_1 D_1   
     e( 21 - 24) =    -14.00705  eV     4   --> B_2  G_4 D_2'  
     e( 21 - 24) =    -14.00705  eV     4   --> E    G_5 D_5   
     e( 25 - 36) =    -13.96852  eV    12   -->   ?

 **************************************************************************

 **************************************************************************

                    xk=(   0.50000,   0.50000,   0.15000  )

     Band symmetry, C_4v (4mm)  point group:

     e(  1 -  4) =    -18.60246  eV     4   --> A_1  G_1 D_1   
     e(  1 -  4) =    -18.60246  eV     4   --> B_2  G_4 D_2'  
     e(  1 -  4) =    -18.60246  eV     4   --> E    G_5 D_5   
     e(  5 -  8) =    -18.60227  eV     4   --> A_1  G_1 D_1   
     e(  5 -  8) =    -18.60227  eV     4   --> B_2  G_4 D_2'  
     e(  5 -  8) =    -18.60227  eV     4   --> E    G_5 D_5   
     e(  9 - 12) =    -14.01654  eV     4   --> A_1  G_1 D_1   
     e(  9 - 12) =    -14.01654  eV     4   --> B_2  G_4 D_2'  
     e(  9 - 12) =    -14.01654  eV     4   --> E    G_5 D_5   
     e( 13 - 20) =    -14.01175  eV     8   -->   2 A_2  G_2 D_1'  
     e( 13 - 20) =    -14.01175  eV     8   -->   2 B_1  G_3 D_2   
     e( 13 - 20) =    -14.01175  eV     8   -->   2 E    G_5 D_5   
     e( 21 - 24) =    -14.00692  eV     4   --> A_1  G_1 D_1   
     e( 21 - 24) =    -14.00692  eV     4   --> B_2  G_4 D_2'  
     e( 21 - 24) =    -14.00692  eV     4   --> E    G_5 D_5   
     e( 25 - 36) =    -13.96853  eV    12   -->   ?

 **************************************************************************

 **************************************************************************

                    xk=(   0.50000,   0.50000,   0.13333  )

     Band symmetry, C_4v (4mm)  point group:

     e(  1 -  4) =    -18.60246  eV     4   --> A_1  G_1 D_1   
     e(  1 -  4) =    -18.60246  eV     4   --> B_2  G_4 D_2'  
     e(  1 -  4) =    -18.60246  eV     4   --> E    G_5 D_5   
     e(  5 -  8) =    -18.60227  eV     4   --> A_1  G_1 D_1   
     e(  5 -  8) =    -18.60227  eV     4   --> B_2  G_4 D_2'  
     e(  5 -  8) =    -18.60227  eV     4   --> E    G_5 D_5   
     e(  9 - 12) =    -14.01666  eV     4   --> A_1  G_1 D_1   
     e(  9 - 12) =    -14.01666  eV     4   --> B_2  G_4 D_2'  
     e(  9 - 12) =    -14.01666  eV     4   --> E    G_5 D_5   
     e( 13 - 20) =    -14.01175  eV     8   -->   2 A_2  G_2 D_1'  
     e( 13 - 20) =    -14.01175  eV     8   -->   2 B_1  G_3 D_2   
     e( 13 - 20) =    -14.01175  eV     8   -->   2 E    G_5 D_5   
     e( 21 - 24) =    -14.00680  eV     4   --> A_1  G_1 D_1   
     e( 21 - 24) =    -14.00680  eV     4   --> B_2  G_4 D_2'  
     e( 21 - 24) =    -14.00680  eV     4   --> E    G_5 D_5   
     e( 25 - 36) =    -13.96855  eV    12   -->   ?

 **************************************************************************

 **************************************************************************

                    xk=(   0.50000,   0.50000,   0.11667  )

     Band symmetry, C_4v (4mm)  point group:

     e(  1 -  4) =    -18.60246  eV     4   --> A_1  G_1 D_1   
     e(  1 -  4) =    -18.60246  eV     4   --> B_2  G_4 D_2'  
     e(  1 -  4) =    -18.60246  eV     4   --> E    G_5 D_5   
     e(  5 -  8) =    -18.60227  eV     4   --> A_1  G_1 D_1   
     e(  5 -  8) =    -18.60227  eV     4   --> B_2  G_4 D_2'  
     e(  5 -  8) =    -18.60227  eV     4   --> E    G_5 D_5   
     e(  9 - 12) =    -14.01677  eV     4   --> A_1  G_1 D_1   
     e(  9 - 12) =    -14.01677  eV     4   --> B_2  G_4 D_2'  
     e(  9 - 12) =    -14.01677  eV     4   --> E    G_5 D_5   
     e( 13 - 20) =    -14.01175  eV     8   -->   2 A_2  G_2 D_1'  
     e( 13 - 20) =    -14.01175  eV     8   -->   2 B_1  G_3 D_2   
     e( 13 - 20) =    -14.01175  eV     8   -->   2 E    G_5 D_5   
     e( 21 - 24) =    -14.00670  eV     4   --> A_1  G_1 D_1   
     e( 21 - 24) =    -14.00670  eV     4   --> B_2  G_4 D_2'  
     e( 21 - 24) =    -14.00670  eV     4   --> E    G_5 D_5   
     e( 25 - 36) =    -13.96855  eV    12   -->   ?

 **************************************************************************

 **************************************************************************

                    xk=(   0.50000,   0.50000,   0.10000  )

     Band symmetry, C_4v (4mm)  point group:

     e(  1 -  4) =    -18.60247  eV     4   --> A_1  G_1 D_1   
     e(  1 -  4) =    -18.60247  eV     4   --> B_2  G_4 D_2'  
     e(  1 -  4) =    -18.60247  eV     4   --> E    G_5 D_5   
     e(  5 -  8) =    -18.60227  eV     4   --> A_1  G_1 D_1   
     e(  5 -  8) =    -18.60227  eV     4   --> B_2  G_4 D_2'  
     e(  5 -  8) =    -18.60227  eV     4   --> E    G_5 D_5   
     e(  9 - 12) =    -14.01686  eV     4   --> A_1  G_1 D_1   
     e(  9 - 12) =    -14.01686  eV     4   --> B_2  G_4 D_2'  
     e(  9 - 12) =    -14.01686  eV     4   --> E    G_5 D_5   
     e( 13 - 20) =    -14.01176  eV     8   -->   2 A_2  G_2 D_1'  
     e( 13 - 20) =    -14.01176  eV     8   -->   2 B_1  G_3 D_2   
     e( 13 - 20) =    -14.01176  eV     8   -->   2 E    G_5 D_5   
     e( 21 - 24) =    -14.00660  eV     4   --> A_1  G_1 D_1   
     e( 21 - 24) =    -14.00660  eV     4   --> B_2  G_4 D_2'  
     e( 21 - 24) =    -14.00660  eV     4   --> E    G_5 D_5   
     e( 25 - 36) =    -13.96855  eV    12   -->   ?

 **************************************************************************

 **************************************************************************

                    xk=(   0.50000,   0.50000,   0.08333  )

     Band symmetry, C_4v (4mm)  point group:

     e(  1 -  4) =    -18.60247  eV     4   --> A_1  G_1 D_1   
     e(  1 -  4) =    -18.60247  eV     4   --> B_2  G_4 D_2'  
     e(  1 -  4) =    -18.60247  eV     4   --> E    G_5 D_5   
     e(  5 -  8) =    -18.60227  eV     4   --> A_1  G_1 D_1   
     e(  5 -  8) =    -18.60227  eV     4   --> B_2  G_4 D_2'  
     e(  5 -  8) =    -18.60227  eV     4   --> E    G_5 D_5   
     e(  9 - 12) =    -14.01694  eV     4   --> A_1  G_1 D_1   
     e(  9 - 12) =    -14.01694  eV     4   --> B_2  G_4 D_2'  
     e(  9 - 12) =    -14.01694  eV     4   --> E    G_5 D_5   
     e( 13 - 20) =    -14.01175  eV     8   -->   2 A_2  G_2 D_1'  
     e( 13 - 20) =    -14.01175  eV     8   -->   2 B_1  G_3 D_2   
     e( 13 - 20) =    -14.01175  eV     8   -->   2 E    G_5 D_5   
     e( 21 - 24) =    -14.00653  eV     4   --> A_1  G_1 D_1   
     e( 21 - 24) =    -14.00653  eV     4   --> B_2  G_4 D_2'  
     e( 21 - 24) =    -14.00653  eV     4   --> E    G_5 D_5   
     e( 25 - 36) =    -13.96856  eV    12   -->   ?

 **************************************************************************

 **************************************************************************

                    xk=(   0.50000,   0.50000,   0.06667  )

     Band symmetry, C_4v (4mm)  point group:

     e(  1 -  4) =    -18.60247  eV     4   --> A_1  G_1 D_1   
     e(  1 -  4) =    -18.60247  eV     4   --> B_2  G_4 D_2'  
     e(  1 -  4) =    -18.60247  eV     4   --> E    G_5 D_5   
     e(  5 -  8) =    -18.60226  eV     4   --> A_1  G_1 D_1   
     e(  5 -  8) =    -18.60226  eV     4   --> B_2  G_4 D_2'  
     e(  5 -  8) =    -18.60226  eV     4   --> E    G_5 D_5   
     e(  9 - 12) =    -14.01701  eV     4   --> A_1  G_1 D_1   
     e(  9 - 12) =    -14.01701  eV     4   --> B_2  G_4 D_2'  
     e(  9 - 12) =    -14.01701  eV     4   --> E    G_5 D_5   
     e( 13 - 20) =    -14.01176  eV     8   -->   2 A_2  G_2 D_1'  
     e( 13 - 20) =    -14.01176  eV     8   -->   2 B_1  G_3 D_2   
     e( 13 - 20) =    -14.01176  eV     8   -->   2 E    G_5 D_5   
     e( 21 - 24) =    -14.00646  eV     4   --> A_1  G_1 D_1   
     e( 21 - 24) =    -14.00646  eV     4   --> B_2  G_4 D_2'  
     e( 21 - 24) =    -14.00646  eV     4   --> E    G_5 D_5   
     e( 25 - 36) =    -13.96855  eV    12   -->   ?

 **************************************************************************

 **************************************************************************

                    xk=(   0.50000,   0.50000,   0.05000  )

     Band symmetry, C_4v (4mm)  point group:

     e(  1 -  4) =    -18.60247  eV     4   --> A_1  G_1 D_1   
     e(  1 -  4) =    -18.60247  eV     4   --> B_2  G_4 D_2'  
     e(  1 -  4) =    -18.60247  eV     4   --> E    G_5 D_5   
     e(  5 -  8) =    -18.60226  eV     4   --> A_1  G_1 D_1   
     e(  5 -  8) =    -18.60226  eV     4   --> B_2  G_4 D_2'  
     e(  5 -  8) =    -18.60226  eV     4   --> E    G_5 D_5   
     e(  9 - 12) =    -14.01708  eV     4   --> A_1  G_1 D_1   
     e(  9 - 12) =    -14.01708  eV     4   --> B_2  G_4 D_2'  
     e(  9 - 12) =    -14.01708  eV     4   --> E    G_5 D_5   
     e( 13 - 20) =    -14.01176  eV     8   -->   2 A_2  G_2 D_1'  
     e( 13 - 20) =    -14.01176  eV     8   -->   2 B_1  G_3 D_2   
     e( 13 - 20) =    -14.01176  eV     8   -->   2 E    G_5 D_5   
     e( 21 - 24) =    -14.00641  eV     4   --> A_1  G_1 D_1   
     e( 21 - 24) =    -14.00641  eV     4   --> B_2  G_4 D_2'  
     e( 21 - 24) =    -14.00641  eV     4   --> E    G_5 D_5   
     e( 25 - 36) =    -13.96856  eV    12   -->   ?

 **************************************************************************

 **************************************************************************

                    xk=(   0.50000,   0.50000,   0.03333  )

     Band symmetry, C_4v (4mm)  point group:

     e(  1 -  4) =    -18.60247  eV     4   --> A_1  G_1 D_1   
     e(  1 -  4) =    -18.60247  eV     4   --> B_2  G_4 D_2'  
     e(  1 -  4) =    -18.60247  eV     4   --> E    G_5 D_5   
     e(  5 -  8) =    -18.60226  eV     4   --> A_1  G_1 D_1   
     e(  5 -  8) =    -18.60226  eV     4   --> B_2  G_4 D_2'  
     e(  5 -  8) =    -18.60226  eV     4   --> E    G_5 D_5   
     e(  9 - 12) =    -14.01712  eV     4   --> A_1  G_1 D_1   
     e(  9 - 12) =    -14.01712  eV     4   --> B_2  G_4 D_2'  
     e(  9 - 12) =    -14.01712  eV     4   --> E    G_5 D_5   
     e( 13 - 20) =    -14.01176  eV     8   -->   2 A_2  G_2 D_1'  
     e( 13 - 20) =    -14.01176  eV     8   -->   2 B_1  G_3 D_2   
     e( 13 - 20) =    -14.01176  eV     8   -->   2 E    G_5 D_5   
     e( 21 - 24) =    -14.00637  eV     4   --> A_1  G_1 D_1   
     e( 21 - 24) =    -14.00637  eV     4   --> B_2  G_4 D_2'  
     e( 21 - 24) =    -14.00637  eV     4   --> E    G_5 D_5   
     e( 25 - 36) =    -13.96855  eV    12   -->   ?

 **************************************************************************

 **************************************************************************

                    xk=(   0.50000,   0.50000,   0.01667  )

     Band symmetry, C_4v (4mm)  point group:

     e(  1 -  4) =    -18.60247  eV     4   --> A_1  G_1 D_1   
     e(  1 -  4) =    -18.60247  eV     4   --> B_2  G_4 D_2'  
     e(  1 -  4) =    -18.60247  eV     4   --> E    G_5 D_5   
     e(  5 -  8) =    -18.60226  eV     4   --> A_1  G_1 D_1   
     e(  5 -  8) =    -18.60226  eV     4   --> B_2  G_4 D_2'  
     e(  5 -  8) =    -18.60226  eV     4   --> E    G_5 D_5   
     e(  9 - 12) =    -14.01715  eV     4   --> A_1  G_1 D_1   
     e(  9 - 12) =    -14.01715  eV     4   --> B_2  G_4 D_2'  
     e(  9 - 12) =    -14.01715  eV     4   --> E    G_5 D_5   
     e( 13 - 20) =    -14.01176  eV     8   -->   2 A_2  G_2 D_1'  
     e( 13 - 20) =    -14.01176  eV     8   -->   2 B_1  G_3 D_2   
     e( 13 - 20) =    -14.01176  eV     8   -->   2 E    G_5 D_5   
     e( 21 - 24) =    -14.00634  eV     4   --> A_1  G_1 D_1   
     e( 21 - 24) =    -14.00634  eV     4   --> B_2  G_4 D_2'  
     e( 21 - 24) =    -14.00634  eV     4   --> E    G_5 D_5   
     e( 25 - 36) =    -13.96855  eV    12   -->   ?

 **************************************************************************

 **************************************************************************

                    xk=(   0.50000,   0.50000,   0.00000  )

     point group D_4h(4/mmm)
     there are 10 classes
     the character table:

       E     2C4   C2    2C2'  2C2'' i     2S4   s_h   2s_v  2s_d 
A_1g   1.00  1.00  1.00  1.00  1.00  1.00  1.00  1.00  1.00  1.00
A_2g   1.00  1.00  1.00 -1.00 -1.00  1.00  1.00  1.00 -1.00 -1.00
B_1g   1.00 -1.00  1.00  1.00 -1.00  1.00 -1.00  1.00  1.00 -1.00
B_2g   1.00 -1.00  1.00 -1.00  1.00  1.00 -1.00  1.00 -1.00  1.00
E_g    2.00  0.00 -2.00  0.00  0.00  2.00  0.00 -2.00  0.00  0.00
A_1u   1.00  1.00  1.00  1.00  1.00 -1.00 -1.00 -1.00 -1.00 -1.00
A_2u   1.00  1.00  1.00 -1.00 -1.00 -1.00 -1.00 -1.00  1.00  1.00
B_1u   1.00 -1.00  1.00  1.00 -1.00 -1.00  1.00 -1.00 -1.00  1.00
B_2u   1.00 -1.00  1.00 -1.00  1.00 -1.00  1.00 -1.00  1.00 -1.00
E_u    2.00  0.00 -2.00  0.00  0.00 -2.00  0.00  2.00  0.00  0.00

     the symmetry operations in each class and the name of the first element:

     E        1
                                                                 
     2C4      7    8
                                                                 
     C2       2
                                                                 
     2C2'     3    4
                                                                 
     2C2''    5    6
                                                                 
     i        9
                                                                 
     2S4     15   16
                                                                 
     s_h     10
                                                                 
     2s_v    11   12
                                                                 
     2s_d    13   14
                                                                 

     Band symmetry, D_4h(4/mmm) point group:

     e(  1 -  4) =    -18.60247  eV     4   --> A_1g X_1  M_1  
     e(  1 -  4) =    -18.60247  eV     4   --> B_2g X_3  M_3  
     e(  1 -  4) =    -18.60247  eV     4   --> E_u  X_5' M_5' 
     e(  5 -  8) =    -18.60226  eV     4   --> E_g  X_5  M_5  
     e(  5 -  8) =    -18.60226  eV     4   --> A_2u X_4' M_4' 
     e(  5 -  8) =    -18.60226  eV     4   --> B_1u X_2' M_2' 
     e(  9 - 12) =    -14.01715  eV     4   --> A_1g X_1  M_1  
     e(  9 - 12) =    -14.01715  eV     4   --> B_2g X_3  M_3  
     e(  9 - 12) =    -14.01715  eV     4   --> E_u  X_5' M_5' 
     e( 13 - 20) =    -14.01176  eV     8   -->   2 A_2g X_4  M_4  
     e( 13 - 20) =    -14.01176  eV     8   -->   2 B_1g X_2  M_2  
     e( 13 - 20) =    -14.01176  eV     8   -->   2 E_u  X_5' M_5' 
     e( 21 - 24) =    -14.00633  eV     4   --> A_1g X_1  M_1  
     e( 21 - 24) =    -14.00633  eV     4   --> B_2g X_3  M_3  
     e( 21 - 24) =    -14.00633  eV     4   --> E_u  X_5' M_5' 
     e( 25 - 36) =    -13.96854  eV    12   -->   ?

 **************************************************************************

     BANDS        :      1h29m CPU      1h32m WALL


   This run was terminated on:  11:41:34  21Apr2024            

=------------------------------------------------------------------------------=
   JOB DONE.
=------------------------------------------------------------------------------=
