
     Program PWSCF v.6.7MaX starts on 20Apr2024 at 16:20:35 

     This program is part of the open-source Quantum ESPRESSO suite
     for quantum simulation of materials; please cite
         "P. Giannozzi et al., J. Phys.:Condens. Matter 21 395502 (2009);
         "P. Giannozzi et al., J. Phys.:Condens. Matter 29 465901 (2017);
          URL http://www.quantum-espresso.org", 
     in publications or presentations arising from this work. More details at
     http://www.quantum-espresso.org/quote

     Parallel version (MPI), running on     2 processors

     MPI processes distributed on     1 nodes
     R & G space division:  proc/nbgrp/npool/nimage =       2
     Waiting for input...
     Reading input from standard input

     Current dimensions of program PWSCF are:
     Max number of different atomic species (ntypx) = 10
     Max number of k-points (npk) =  40000
     Max angular momentum in pseudopotentials (lmaxx) =  3

     Atomic positions and unit cell read from directory:
     ../out/aiida.save/

     file Pb.pbe-dn-kjpaw_psl.0.2.2.UPF: wavefunction(s)  6S renormalized

     Subspace diagonalization in iterative solution of the eigenvalue problem:
     a serial algorithm will be used

     Found symmetry operation: I + (  0.0000  0.0000  0.5000)
     This is a supercell, fractional translations are disabled
     Message from routine setup:
     using ibrav=0 with symmetry is DISCOURAGED, use correct ibrav instead

     Parallelization info
     --------------------
     sticks:   dense  smooth     PW     G-vecs:    dense   smooth      PW
     Min        3707    3707    996               239884   239884   33316
     Max        3710    3710    997               239885   239885   33319
     Sum        7417    7417   1993               479769   479769   66635



     bravais-lattice index     =            0
     lattice parameter (alat)  =      24.1188  a.u.
     unit-cell volume          =   14030.3801 (a.u.)^3
     number of atoms/cell      =           40
     number of atomic types    =            3
     number of electrons       =       352.00
     number of Kohn-Sham states=           36
     kinetic-energy cutoff     =      40.0000  Ry
     charge density cutoff     =     160.0000  Ry
     Exchange-correlation= SLA  PW   PBX  PBC
                           (   1   4   3   4   0   0   0)

     celldm(1)=  24.118843  celldm(2)=   0.000000  celldm(3)=   0.000000
     celldm(4)=   0.000000  celldm(5)=   0.000000  celldm(6)=   0.000000

     crystal axes: (cart. coord. in units of alat)
               a(1) = (   1.000000   0.000000   0.000000 )  
               a(2) = (   0.000000   1.000000   0.000000 )  
               a(3) = (   0.000000   0.000000   1.000000 )  

     reciprocal axes: (cart. coord. in units 2 pi/alat)
               b(1) = (  1.000000  0.000000  0.000000 )  
               b(2) = (  0.000000  1.000000  0.000000 )  
               b(3) = (  0.000000  0.000000  1.000000 )  


     PseudoPot. # 1 for Cs read from file:
     ../pseudo/Cs_pbe_v1.uspp.F.UPF
     MD5 check sum: 3476d69cb178dfad3ffaa59df4e07ca4
     Pseudo is Ultrasoft + core correction, Zval =  9.0
     Generated by new atomic code, or converted to UPF format
     Using radial grid of  905 points,  6 beta functions with: 
                l(1) =   0
                l(2) =   0
                l(3) =   1
                l(4) =   1
                l(5) =   2
                l(6) =   2
     Q(r) pseudized with  6 coefficients,  rinner =    1.500   1.500   1.500
                                                       1.500   1.500

     PseudoPot. # 2 for I  read from file:
     ../pseudo/I.pbe-n-kjpaw_psl.0.2.UPF
     MD5 check sum: d4ef18d9c8f18dc85e5843bca1e50dc0
     Pseudo is Projector augmented-wave + core cor, Zval =  7.0
     Generated using "atomic" code by A. Dal Corso  v.5.0.99 svn rev. 10869
     Shape of augmentation charge: PSQ
     Using radial grid of 1247 points,  4 beta functions with: 
                l(1) =   0
                l(2) =   0
                l(3) =   1
                l(4) =   1
     Q(r) pseudized with 0 coefficients 


     PseudoPot. # 3 for Pb read from file:
     ../pseudo/Pb.pbe-dn-kjpaw_psl.0.2.2.UPF
     MD5 check sum: 9d431e6316058b74ade52399a6cf67da
     Pseudo is Projector augmented-wave + core cor, Zval = 14.0
     Generated using "atomic" code by A. Dal Corso  v.5.0.99 svn rev. 10869
     Shape of augmentation charge: PSQ
     Using radial grid of 1281 points,  6 beta functions with: 
                l(1) =   0
                l(2) =   0
                l(3) =   1
                l(4) =   1
                l(5) =   2
                l(6) =   2
     Q(r) pseudized with 0 coefficients 


     atomic species   valence    mass     pseudopotential
        Cs             9.00   132.90545     Cs( 1.00)
        I              7.00   126.90447     I ( 1.00)
        Pb            14.00   207.20000     Pb( 1.00)

     48 Sym. Ops., with inversion, found


                                    s                        frac. trans.

      isym =  1     identity                                     

 cryst.   s( 1) = (     1          0          0      )
                  (     0          1          0      )
                  (     0          0          1      )

 cart.    s( 1) = (  1.0000000  0.0000000  0.0000000 )
                  (  0.0000000  1.0000000  0.0000000 )
                  (  0.0000000  0.0000000  1.0000000 )


      isym =  2     180 deg rotation - cart. axis [0,0,1]        

 cryst.   s( 2) = (    -1          0          0      )
                  (     0         -1          0      )
                  (     0          0          1      )

 cart.    s( 2) = ( -1.0000000  0.0000000  0.0000000 )
                  (  0.0000000 -1.0000000  0.0000000 )
                  (  0.0000000  0.0000000  1.0000000 )


      isym =  3     180 deg rotation - cart. axis [0,1,0]        

 cryst.   s( 3) = (    -1          0          0      )
                  (     0          1          0      )
                  (     0          0         -1      )

 cart.    s( 3) = ( -1.0000000  0.0000000  0.0000000 )
                  (  0.0000000  1.0000000  0.0000000 )
                  (  0.0000000  0.0000000 -1.0000000 )


      isym =  4     180 deg rotation - cart. axis [1,0,0]        

 cryst.   s( 4) = (     1          0          0      )
                  (     0         -1          0      )
                  (     0          0         -1      )

 cart.    s( 4) = (  1.0000000  0.0000000  0.0000000 )
                  (  0.0000000 -1.0000000  0.0000000 )
                  (  0.0000000  0.0000000 -1.0000000 )


      isym =  5     180 deg rotation - cart. axis [1,1,0]        

 cryst.   s( 5) = (     0          1          0      )
                  (     1          0          0      )
                  (     0          0         -1      )

 cart.    s( 5) = (  0.0000000  1.0000000  0.0000000 )
                  (  1.0000000  0.0000000  0.0000000 )
                  (  0.0000000  0.0000000 -1.0000000 )


      isym =  6     180 deg rotation - cart. axis [1,-1,0]       

 cryst.   s( 6) = (     0         -1          0      )
                  (    -1          0          0      )
                  (     0          0         -1      )

 cart.    s( 6) = (  0.0000000 -1.0000000  0.0000000 )
                  ( -1.0000000  0.0000000  0.0000000 )
                  (  0.0000000  0.0000000 -1.0000000 )


      isym =  7      90 deg rotation - cart. axis [0,0,-1]       

 cryst.   s( 7) = (     0         -1          0      )
                  (     1          0          0      )
                  (     0          0          1      )

 cart.    s( 7) = (  0.0000000  1.0000000  0.0000000 )
                  ( -1.0000000  0.0000000  0.0000000 )
                  (  0.0000000  0.0000000  1.0000000 )


      isym =  8      90 deg rotation - cart. axis [0,0,1]        

 cryst.   s( 8) = (     0          1          0      )
                  (    -1          0          0      )
                  (     0          0          1      )

 cart.    s( 8) = (  0.0000000 -1.0000000  0.0000000 )
                  (  1.0000000  0.0000000  0.0000000 )
                  (  0.0000000  0.0000000  1.0000000 )


      isym =  9     180 deg rotation - cart. axis [1,0,1]        

 cryst.   s( 9) = (     0          0          1      )
                  (     0         -1          0      )
                  (     1          0          0      )

 cart.    s( 9) = (  0.0000000  0.0000000  1.0000000 )
                  (  0.0000000 -1.0000000  0.0000000 )
                  (  1.0000000  0.0000000  0.0000000 )


      isym = 10     180 deg rotation - cart. axis [-1,0,1]       

 cryst.   s(10) = (     0          0         -1      )
                  (     0         -1          0      )
                  (    -1          0          0      )

 cart.    s(10) = (  0.0000000  0.0000000 -1.0000000 )
                  (  0.0000000 -1.0000000  0.0000000 )
                  ( -1.0000000  0.0000000  0.0000000 )


      isym = 11      90 deg rotation - cart. axis [0,1,0]        

 cryst.   s(11) = (     0          0         -1      )
                  (     0          1          0      )
                  (     1          0          0      )

 cart.    s(11) = (  0.0000000  0.0000000  1.0000000 )
                  (  0.0000000  1.0000000  0.0000000 )
                  ( -1.0000000  0.0000000  0.0000000 )


      isym = 12      90 deg rotation - cart. axis [0,-1,0]       

 cryst.   s(12) = (     0          0          1      )
                  (     0          1          0      )
                  (    -1          0          0      )

 cart.    s(12) = (  0.0000000  0.0000000 -1.0000000 )
                  (  0.0000000  1.0000000  0.0000000 )
                  (  1.0000000  0.0000000  0.0000000 )


      isym = 13     180 deg rotation - cart. axis [0,1,1]        

 cryst.   s(13) = (    -1          0          0      )
                  (     0          0          1      )
                  (     0          1          0      )

 cart.    s(13) = ( -1.0000000  0.0000000  0.0000000 )
                  (  0.0000000  0.0000000  1.0000000 )
                  (  0.0000000  1.0000000  0.0000000 )


      isym = 14     180 deg rotation - cart. axis [0,1,-1]       

 cryst.   s(14) = (    -1          0          0      )
                  (     0          0         -1      )
                  (     0         -1          0      )

 cart.    s(14) = ( -1.0000000  0.0000000  0.0000000 )
                  (  0.0000000  0.0000000 -1.0000000 )
                  (  0.0000000 -1.0000000  0.0000000 )


      isym = 15      90 deg rotation - cart. axis [-1,0,0]       

 cryst.   s(15) = (     1          0          0      )
                  (     0          0         -1      )
                  (     0          1          0      )

 cart.    s(15) = (  1.0000000  0.0000000  0.0000000 )
                  (  0.0000000  0.0000000  1.0000000 )
                  (  0.0000000 -1.0000000  0.0000000 )


      isym = 16      90 deg rotation - cart. axis [1,0,0]        

 cryst.   s(16) = (     1          0          0      )
                  (     0          0          1      )
                  (     0         -1          0      )

 cart.    s(16) = (  1.0000000  0.0000000  0.0000000 )
                  (  0.0000000  0.0000000 -1.0000000 )
                  (  0.0000000  1.0000000  0.0000000 )


      isym = 17     120 deg rotation - cart. axis [-1,-1,-1]     

 cryst.   s(17) = (     0          0          1      )
                  (     1          0          0      )
                  (     0          1          0      )

 cart.    s(17) = (  0.0000000  1.0000000  0.0000000 )
                  (  0.0000000  0.0000000  1.0000000 )
                  (  1.0000000  0.0000000  0.0000000 )


      isym = 18     120 deg rotation - cart. axis [-1,1,1]       

 cryst.   s(18) = (     0          0         -1      )
                  (    -1          0          0      )
                  (     0          1          0      )

 cart.    s(18) = (  0.0000000 -1.0000000  0.0000000 )
                  (  0.0000000  0.0000000  1.0000000 )
                  ( -1.0000000  0.0000000  0.0000000 )


      isym = 19     120 deg rotation - cart. axis [1,1,-1]       

 cryst.   s(19) = (     0          0         -1      )
                  (     1          0          0      )
                  (     0         -1          0      )

 cart.    s(19) = (  0.0000000  1.0000000  0.0000000 )
                  (  0.0000000  0.0000000 -1.0000000 )
                  ( -1.0000000  0.0000000  0.0000000 )


      isym = 20     120 deg rotation - cart. axis [1,-1,1]       

 cryst.   s(20) = (     0          0          1      )
                  (    -1          0          0      )
                  (     0         -1          0      )

 cart.    s(20) = (  0.0000000 -1.0000000  0.0000000 )
                  (  0.0000000  0.0000000 -1.0000000 )
                  (  1.0000000  0.0000000  0.0000000 )


      isym = 21     120 deg rotation - cart. axis [1,1,1]        

 cryst.   s(21) = (     0          1          0      )
                  (     0          0          1      )
                  (     1          0          0      )

 cart.    s(21) = (  0.0000000  0.0000000  1.0000000 )
                  (  1.0000000  0.0000000  0.0000000 )
                  (  0.0000000  1.0000000  0.0000000 )


      isym = 22     120 deg rotation - cart. axis [-1,1,-1]      

 cryst.   s(22) = (     0         -1          0      )
                  (     0          0         -1      )
                  (     1          0          0      )

 cart.    s(22) = (  0.0000000  0.0000000  1.0000000 )
                  ( -1.0000000  0.0000000  0.0000000 )
                  (  0.0000000 -1.0000000  0.0000000 )


      isym = 23     120 deg rotation - cart. axis [1,-1,-1]      

 cryst.   s(23) = (     0         -1          0      )
                  (     0          0          1      )
                  (    -1          0          0      )

 cart.    s(23) = (  0.0000000  0.0000000 -1.0000000 )
                  ( -1.0000000  0.0000000  0.0000000 )
                  (  0.0000000  1.0000000  0.0000000 )


      isym = 24     120 deg rotation - cart. axis [-1,-1,1]      

 cryst.   s(24) = (     0          1          0      )
                  (     0          0         -1      )
                  (    -1          0          0      )

 cart.    s(24) = (  0.0000000  0.0000000 -1.0000000 )
                  (  1.0000000  0.0000000  0.0000000 )
                  (  0.0000000 -1.0000000  0.0000000 )


      isym = 25     inversion                                    

 cryst.   s(25) = (    -1          0          0      )
                  (     0         -1          0      )
                  (     0          0         -1      )

 cart.    s(25) = ( -1.0000000  0.0000000  0.0000000 )
                  (  0.0000000 -1.0000000  0.0000000 )
                  (  0.0000000  0.0000000 -1.0000000 )


      isym = 26     inv. 180 deg rotation - cart. axis [0,0,1]   

 cryst.   s(26) = (     1          0          0      )
                  (     0          1          0      )
                  (     0          0         -1      )

 cart.    s(26) = (  1.0000000  0.0000000  0.0000000 )
                  (  0.0000000  1.0000000  0.0000000 )
                  (  0.0000000  0.0000000 -1.0000000 )


      isym = 27     inv. 180 deg rotation - cart. axis [0,1,0]   

 cryst.   s(27) = (     1          0          0      )
                  (     0         -1          0      )
                  (     0          0          1      )

 cart.    s(27) = (  1.0000000  0.0000000  0.0000000 )
                  (  0.0000000 -1.0000000  0.0000000 )
                  (  0.0000000  0.0000000  1.0000000 )


      isym = 28     inv. 180 deg rotation - cart. axis [1,0,0]   

 cryst.   s(28) = (    -1          0          0      )
                  (     0          1          0      )
                  (     0          0          1      )

 cart.    s(28) = ( -1.0000000  0.0000000  0.0000000 )
                  (  0.0000000  1.0000000  0.0000000 )
                  (  0.0000000  0.0000000  1.0000000 )


      isym = 29     inv. 180 deg rotation - cart. axis [1,1,0]   

 cryst.   s(29) = (     0         -1          0      )
                  (    -1          0          0      )
                  (     0          0          1      )

 cart.    s(29) = (  0.0000000 -1.0000000  0.0000000 )
                  ( -1.0000000  0.0000000  0.0000000 )
                  (  0.0000000  0.0000000  1.0000000 )


      isym = 30     inv. 180 deg rotation - cart. axis [1,-1,0]  

 cryst.   s(30) = (     0          1          0      )
                  (     1          0          0      )
                  (     0          0          1      )

 cart.    s(30) = (  0.0000000  1.0000000  0.0000000 )
                  (  1.0000000  0.0000000  0.0000000 )
                  (  0.0000000  0.0000000  1.0000000 )


      isym = 31     inv.  90 deg rotation - cart. axis [0,0,-1]  

 cryst.   s(31) = (     0          1          0      )
                  (    -1          0          0      )
                  (     0          0         -1      )

 cart.    s(31) = (  0.0000000 -1.0000000  0.0000000 )
                  (  1.0000000  0.0000000  0.0000000 )
                  (  0.0000000  0.0000000 -1.0000000 )


      isym = 32     inv.  90 deg rotation - cart. axis [0,0,1]   

 cryst.   s(32) = (     0         -1          0      )
                  (     1          0          0      )
                  (     0          0         -1      )

 cart.    s(32) = (  0.0000000  1.0000000  0.0000000 )
                  ( -1.0000000  0.0000000  0.0000000 )
                  (  0.0000000  0.0000000 -1.0000000 )


      isym = 33     inv. 180 deg rotation - cart. axis [1,0,1]   

 cryst.   s(33) = (     0          0         -1      )
                  (     0          1          0      )
                  (    -1          0          0      )

 cart.    s(33) = (  0.0000000  0.0000000 -1.0000000 )
                  (  0.0000000  1.0000000  0.0000000 )
                  ( -1.0000000  0.0000000  0.0000000 )


      isym = 34     inv. 180 deg rotation - cart. axis [-1,0,1]  

 cryst.   s(34) = (     0          0          1      )
                  (     0          1          0      )
                  (     1          0          0      )

 cart.    s(34) = (  0.0000000  0.0000000  1.0000000 )
                  (  0.0000000  1.0000000  0.0000000 )
                  (  1.0000000  0.0000000  0.0000000 )


      isym = 35     inv.  90 deg rotation - cart. axis [0,1,0]   

 cryst.   s(35) = (     0          0          1      )
                  (     0         -1          0      )
                  (    -1          0          0      )

 cart.    s(35) = (  0.0000000  0.0000000 -1.0000000 )
                  (  0.0000000 -1.0000000  0.0000000 )
                  (  1.0000000  0.0000000  0.0000000 )


      isym = 36     inv.  90 deg rotation - cart. axis [0,-1,0]  

 cryst.   s(36) = (     0          0         -1      )
                  (     0         -1          0      )
                  (     1          0          0      )

 cart.    s(36) = (  0.0000000  0.0000000  1.0000000 )
                  (  0.0000000 -1.0000000  0.0000000 )
                  ( -1.0000000  0.0000000  0.0000000 )


      isym = 37     inv. 180 deg rotation - cart. axis [0,1,1]   

 cryst.   s(37) = (     1          0          0      )
                  (     0          0         -1      )
                  (     0         -1          0      )

 cart.    s(37) = (  1.0000000  0.0000000  0.0000000 )
                  (  0.0000000  0.0000000 -1.0000000 )
                  (  0.0000000 -1.0000000  0.0000000 )


      isym = 38     inv. 180 deg rotation - cart. axis [0,1,-1]  

 cryst.   s(38) = (     1          0          0      )
                  (     0          0          1      )
                  (     0          1          0      )

 cart.    s(38) = (  1.0000000  0.0000000  0.0000000 )
                  (  0.0000000  0.0000000  1.0000000 )
                  (  0.0000000  1.0000000  0.0000000 )


      isym = 39     inv.  90 deg rotation - cart. axis [-1,0,0]  

 cryst.   s(39) = (    -1          0          0      )
                  (     0          0          1      )
                  (     0         -1          0      )

 cart.    s(39) = ( -1.0000000  0.0000000  0.0000000 )
                  (  0.0000000  0.0000000 -1.0000000 )
                  (  0.0000000  1.0000000  0.0000000 )


      isym = 40     inv.  90 deg rotation - cart. axis [1,0,0]   

 cryst.   s(40) = (    -1          0          0      )
                  (     0          0         -1      )
                  (     0          1          0      )

 cart.    s(40) = ( -1.0000000  0.0000000  0.0000000 )
                  (  0.0000000  0.0000000  1.0000000 )
                  (  0.0000000 -1.0000000  0.0000000 )


      isym = 41     inv. 120 deg rotation - cart. axis [-1,-1,-1]

 cryst.   s(41) = (     0          0         -1      )
                  (    -1          0          0      )
                  (     0         -1          0      )

 cart.    s(41) = (  0.0000000 -1.0000000  0.0000000 )
                  (  0.0000000  0.0000000 -1.0000000 )
                  ( -1.0000000  0.0000000  0.0000000 )


      isym = 42     inv. 120 deg rotation - cart. axis [-1,1,1]  

 cryst.   s(42) = (     0          0          1      )
                  (     1          0          0      )
                  (     0         -1          0      )

 cart.    s(42) = (  0.0000000  1.0000000  0.0000000 )
                  (  0.0000000  0.0000000 -1.0000000 )
                  (  1.0000000  0.0000000  0.0000000 )


      isym = 43     inv. 120 deg rotation - cart. axis [1,1,-1]  

 cryst.   s(43) = (     0          0          1      )
                  (    -1          0          0      )
                  (     0          1          0      )

 cart.    s(43) = (  0.0000000 -1.0000000  0.0000000 )
                  (  0.0000000  0.0000000  1.0000000 )
                  (  1.0000000  0.0000000  0.0000000 )


      isym = 44     inv. 120 deg rotation - cart. axis [1,-1,1]  

 cryst.   s(44) = (     0          0         -1      )
                  (     1          0          0      )
                  (     0          1          0      )

 cart.    s(44) = (  0.0000000  1.0000000  0.0000000 )
                  (  0.0000000  0.0000000  1.0000000 )
                  ( -1.0000000  0.0000000  0.0000000 )


      isym = 45     inv. 120 deg rotation - cart. axis [1,1,1]   

 cryst.   s(45) = (     0         -1          0      )
                  (     0          0         -1      )
                  (    -1          0          0      )

 cart.    s(45) = (  0.0000000  0.0000000 -1.0000000 )
                  ( -1.0000000  0.0000000  0.0000000 )
                  (  0.0000000 -1.0000000  0.0000000 )


      isym = 46     inv. 120 deg rotation - cart. axis [-1,1,-1] 

 cryst.   s(46) = (     0          1          0      )
                  (     0          0          1      )
                  (    -1          0          0      )

 cart.    s(46) = (  0.0000000  0.0000000 -1.0000000 )
                  (  1.0000000  0.0000000  0.0000000 )
                  (  0.0000000  1.0000000  0.0000000 )


      isym = 47     inv. 120 deg rotation - cart. axis [1,-1,-1] 

 cryst.   s(47) = (     0          1          0      )
                  (     0          0         -1      )
                  (     1          0          0      )

 cart.    s(47) = (  0.0000000  0.0000000  1.0000000 )
                  (  1.0000000  0.0000000  0.0000000 )
                  (  0.0000000 -1.0000000  0.0000000 )


      isym = 48     inv. 120 deg rotation - cart. axis [-1,-1,1] 

 cryst.   s(48) = (     0         -1          0      )
                  (     0          0          1      )
                  (     1          0          0      )

 cart.    s(48) = (  0.0000000  0.0000000  1.0000000 )
                  ( -1.0000000  0.0000000  0.0000000 )
                  (  0.0000000  1.0000000  0.0000000 )


   Cartesian axes

     site n.     atom                  positions (alat units)
         1           Cs  tau(   1) = (   0.2500001   0.2500001   0.2500001  )
         2           Cs  tau(   2) = (   0.2500001   0.2500001   0.7499999  )
         3           Cs  tau(   3) = (   0.2500001   0.7499999   0.2500001  )
         4           Cs  tau(   4) = (   0.2500001   0.7499999   0.7499999  )
         5           Cs  tau(   5) = (   0.7499999   0.2500001   0.2500001  )
         6           Cs  tau(   6) = (   0.7499999   0.2500001   0.7499999  )
         7           Cs  tau(   7) = (   0.7499999   0.7499999   0.2500001  )
         8           Cs  tau(   8) = (   0.7499999   0.7499999   0.7499999  )
         9           Pb  tau(   9) = (   0.0000000   0.0000000   0.0000000  )
        10           Pb  tau(  10) = (   0.0000000   0.0000000   0.5000000  )
        11           Pb  tau(  11) = (   0.0000000   0.5000000   0.0000000  )
        12           Pb  tau(  12) = (   0.0000000   0.5000000   0.5000000  )
        13           Pb  tau(  13) = (   0.5000000   0.0000000   0.0000000  )
        14           Pb  tau(  14) = (   0.5000000   0.0000000   0.5000000  )
        15           Pb  tau(  15) = (   0.5000000   0.5000000   0.0000000  )
        16           Pb  tau(  16) = (   0.5000000   0.5000000   0.5000000  )
        17           I   tau(  17) = (  -0.0000000  -0.0000000   0.2500016  )
        18           I   tau(  18) = (   0.0000000  -0.0000000   0.7499984  )
        19           I   tau(  19) = (   0.0000000   0.5000000   0.2500017  )
        20           I   tau(  20) = (   0.0000000   0.5000000   0.7499983  )
        21           I   tau(  21) = (   0.5000000  -0.0000000   0.2500017  )
        22           I   tau(  22) = (   0.5000000  -0.0000000   0.7499983  )
        23           I   tau(  23) = (   0.5000000   0.5000000   0.2500017  )
        24           I   tau(  24) = (   0.5000000   0.5000000   0.7499983  )
        25           I   tau(  25) = (   0.0000000   0.2500016   0.0000000  )
        26           I   tau(  26) = (   0.0000000   0.2500017   0.5000000  )
        27           I   tau(  27) = (  -0.0000000   0.7499984   0.0000000  )
        28           I   tau(  28) = (   0.0000000   0.7499983   0.5000000  )
        29           I   tau(  29) = (   0.5000000   0.2500017   0.0000000  )
        30           I   tau(  30) = (   0.5000000   0.2500017   0.5000000  )
        31           I   tau(  31) = (   0.5000000   0.7499983   0.0000000  )
        32           I   tau(  32) = (   0.5000000   0.7499983   0.5000000  )
        33           I   tau(  33) = (   0.2500016  -0.0000000  -0.0000000  )
        34           I   tau(  34) = (   0.2500017  -0.0000000   0.5000000  )
        35           I   tau(  35) = (   0.2500017   0.5000000  -0.0000000  )
        36           I   tau(  36) = (   0.2500017   0.5000000   0.5000000  )
        37           I   tau(  37) = (   0.7499984   0.0000000  -0.0000000  )
        38           I   tau(  38) = (   0.7499983  -0.0000000   0.5000000  )
        39           I   tau(  39) = (   0.7499983   0.5000000  -0.0000000  )
        40           I   tau(  40) = (   0.7499983   0.5000000   0.5000000  )

   Crystallographic axes

     site n.     atom                  positions (cryst. coord.)
         1           Cs  tau(   1) = (  0.2500001  0.2500001  0.2500001  )
         2           Cs  tau(   2) = (  0.2500001  0.2500001  0.7499999  )
         3           Cs  tau(   3) = (  0.2500001  0.7499999  0.2500001  )
         4           Cs  tau(   4) = (  0.2500001  0.7499999  0.7499999  )
         5           Cs  tau(   5) = (  0.7499999  0.2500001  0.2500001  )
         6           Cs  tau(   6) = (  0.7499999  0.2500001  0.7499999  )
         7           Cs  tau(   7) = (  0.7499999  0.7499999  0.2500001  )
         8           Cs  tau(   8) = (  0.7499999  0.7499999  0.7499999  )
         9           Pb  tau(   9) = (  0.0000000  0.0000000  0.0000000  )
        10           Pb  tau(  10) = (  0.0000000  0.0000000  0.5000000  )
        11           Pb  tau(  11) = (  0.0000000  0.5000000  0.0000000  )
        12           Pb  tau(  12) = (  0.0000000  0.5000000  0.5000000  )
        13           Pb  tau(  13) = (  0.5000000  0.0000000  0.0000000  )
        14           Pb  tau(  14) = (  0.5000000  0.0000000  0.5000000  )
        15           Pb  tau(  15) = (  0.5000000  0.5000000  0.0000000  )
        16           Pb  tau(  16) = (  0.5000000  0.5000000  0.5000000  )
        17           I   tau(  17) = (  0.0000000  0.0000000  0.2500016  )
        18           I   tau(  18) = (  0.0000000  0.0000000  0.7499984  )
        19           I   tau(  19) = (  0.0000000  0.5000000  0.2500017  )
        20           I   tau(  20) = (  0.0000000  0.5000000  0.7499983  )
        21           I   tau(  21) = (  0.5000000  0.0000000  0.2500017  )
        22           I   tau(  22) = (  0.5000000  0.0000000  0.7499983  )
        23           I   tau(  23) = (  0.5000000  0.5000000  0.2500017  )
        24           I   tau(  24) = (  0.5000000  0.5000000  0.7499983  )
        25           I   tau(  25) = (  0.0000000  0.2500016  0.0000000  )
        26           I   tau(  26) = (  0.0000000  0.2500017  0.5000000  )
        27           I   tau(  27) = (  0.0000000  0.7499984  0.0000000  )
        28           I   tau(  28) = (  0.0000000  0.7499983  0.5000000  )
        29           I   tau(  29) = (  0.5000000  0.2500017  0.0000000  )
        30           I   tau(  30) = (  0.5000000  0.2500017  0.5000000  )
        31           I   tau(  31) = (  0.5000000  0.7499983  0.0000000  )
        32           I   tau(  32) = (  0.5000000  0.7499983  0.5000000  )
        33           I   tau(  33) = (  0.2500016  0.0000000  0.0000000  )
        34           I   tau(  34) = (  0.2500017  0.0000000  0.5000000  )
        35           I   tau(  35) = (  0.2500017  0.5000000  0.0000000  )
        36           I   tau(  36) = (  0.2500017  0.5000000  0.5000000  )
        37           I   tau(  37) = (  0.7499984  0.0000000  0.0000000  )
        38           I   tau(  38) = (  0.7499983  0.0000000  0.5000000  )
        39           I   tau(  39) = (  0.7499983  0.5000000  0.0000000  )
        40           I   tau(  40) = (  0.7499983  0.5000000  0.5000000  )

     number of k points=   182  Marzari-Vanderbilt smearing, width (Ry)=  0.0147
                       cart. coord. in units 2pi/alat
        k(    1) = (   0.0000000   0.0000000   0.0000000), wk =   0.0109890
        k(    2) = (   0.0000000   0.0166667   0.0000000), wk =   0.0109890
        k(    3) = (   0.0000000   0.0333333   0.0000000), wk =   0.0109890
        k(    4) = (   0.0000000   0.0500000   0.0000000), wk =   0.0109890
        k(    5) = (   0.0000000   0.0666667   0.0000000), wk =   0.0109890
        k(    6) = (   0.0000000   0.0833333   0.0000000), wk =   0.0109890
        k(    7) = (   0.0000000   0.1000000   0.0000000), wk =   0.0109890
        k(    8) = (   0.0000000   0.1166667   0.0000000), wk =   0.0109890
        k(    9) = (   0.0000000   0.1333333   0.0000000), wk =   0.0109890
        k(   10) = (   0.0000000   0.1500000   0.0000000), wk =   0.0109890
        k(   11) = (   0.0000000   0.1666667   0.0000000), wk =   0.0109890
        k(   12) = (   0.0000000   0.1833333   0.0000000), wk =   0.0109890
        k(   13) = (   0.0000000   0.2000000   0.0000000), wk =   0.0109890
        k(   14) = (   0.0000000   0.2166667   0.0000000), wk =   0.0109890
        k(   15) = (   0.0000000   0.2333333   0.0000000), wk =   0.0109890
        k(   16) = (   0.0000000   0.2500000   0.0000000), wk =   0.0109890
        k(   17) = (   0.0000000   0.2666667   0.0000000), wk =   0.0109890
        k(   18) = (   0.0000000   0.2833333   0.0000000), wk =   0.0109890
        k(   19) = (   0.0000000   0.3000000   0.0000000), wk =   0.0109890
        k(   20) = (   0.0000000   0.3166667   0.0000000), wk =   0.0109890
        k(   21) = (   0.0000000   0.3333333   0.0000000), wk =   0.0109890
        k(   22) = (   0.0000000   0.3500000   0.0000000), wk =   0.0109890
        k(   23) = (   0.0000000   0.3666667   0.0000000), wk =   0.0109890
        k(   24) = (   0.0000000   0.3833333   0.0000000), wk =   0.0109890
        k(   25) = (   0.0000000   0.4000000   0.0000000), wk =   0.0109890
        k(   26) = (   0.0000000   0.4166667   0.0000000), wk =   0.0109890
        k(   27) = (   0.0000000   0.4333333   0.0000000), wk =   0.0109890
        k(   28) = (   0.0000000   0.4500000   0.0000000), wk =   0.0109890
        k(   29) = (   0.0000000   0.4666667   0.0000000), wk =   0.0109890
        k(   30) = (   0.0000000   0.4833333   0.0000000), wk =   0.0109890
        k(   31) = (   0.0000000   0.5000000   0.0000000), wk =   0.0109890
        k(   32) = (   0.0166667   0.5000000   0.0000000), wk =   0.0109890
        k(   33) = (   0.0333333   0.5000000   0.0000000), wk =   0.0109890
        k(   34) = (   0.0500000   0.5000000   0.0000000), wk =   0.0109890
        k(   35) = (   0.0666667   0.5000000   0.0000000), wk =   0.0109890
        k(   36) = (   0.0833333   0.5000000   0.0000000), wk =   0.0109890
        k(   37) = (   0.1000000   0.5000000   0.0000000), wk =   0.0109890
        k(   38) = (   0.1166667   0.5000000   0.0000000), wk =   0.0109890
        k(   39) = (   0.1333333   0.5000000   0.0000000), wk =   0.0109890
        k(   40) = (   0.1500000   0.5000000   0.0000000), wk =   0.0109890
        k(   41) = (   0.1666667   0.5000000   0.0000000), wk =   0.0109890
        k(   42) = (   0.1833333   0.5000000   0.0000000), wk =   0.0109890
        k(   43) = (   0.2000000   0.5000000   0.0000000), wk =   0.0109890
        k(   44) = (   0.2166667   0.5000000   0.0000000), wk =   0.0109890
        k(   45) = (   0.2333333   0.5000000   0.0000000), wk =   0.0109890
        k(   46) = (   0.2500000   0.5000000   0.0000000), wk =   0.0109890
        k(   47) = (   0.2666667   0.5000000   0.0000000), wk =   0.0109890
        k(   48) = (   0.2833333   0.5000000   0.0000000), wk =   0.0109890
        k(   49) = (   0.3000000   0.5000000   0.0000000), wk =   0.0109890
        k(   50) = (   0.3166667   0.5000000   0.0000000), wk =   0.0109890
        k(   51) = (   0.3333333   0.5000000   0.0000000), wk =   0.0109890
        k(   52) = (   0.3500000   0.5000000   0.0000000), wk =   0.0109890
        k(   53) = (   0.3666667   0.5000000   0.0000000), wk =   0.0109890
        k(   54) = (   0.3833333   0.5000000   0.0000000), wk =   0.0109890
        k(   55) = (   0.4000000   0.5000000   0.0000000), wk =   0.0109890
        k(   56) = (   0.4166667   0.5000000   0.0000000), wk =   0.0109890
        k(   57) = (   0.4333333   0.5000000   0.0000000), wk =   0.0109890
        k(   58) = (   0.4500000   0.5000000   0.0000000), wk =   0.0109890
        k(   59) = (   0.4666667   0.5000000   0.0000000), wk =   0.0109890
        k(   60) = (   0.4833333   0.5000000   0.0000000), wk =   0.0109890
        k(   61) = (   0.5000000   0.5000000   0.0000000), wk =   0.0109890
        k(   62) = (   0.4833333   0.4833333   0.0000000), wk =   0.0109890
        k(   63) = (   0.4666667   0.4666667   0.0000000), wk =   0.0109890
        k(   64) = (   0.4500000   0.4500000   0.0000000), wk =   0.0109890
        k(   65) = (   0.4333333   0.4333333   0.0000000), wk =   0.0109890
        k(   66) = (   0.4166667   0.4166667   0.0000000), wk =   0.0109890
        k(   67) = (   0.4000000   0.4000000   0.0000000), wk =   0.0109890
        k(   68) = (   0.3833333   0.3833333   0.0000000), wk =   0.0109890
        k(   69) = (   0.3666667   0.3666667   0.0000000), wk =   0.0109890
        k(   70) = (   0.3500000   0.3500000   0.0000000), wk =   0.0109890
        k(   71) = (   0.3333333   0.3333333   0.0000000), wk =   0.0109890
        k(   72) = (   0.3166667   0.3166667   0.0000000), wk =   0.0109890
        k(   73) = (   0.3000000   0.3000000   0.0000000), wk =   0.0109890
        k(   74) = (   0.2833333   0.2833333   0.0000000), wk =   0.0109890
        k(   75) = (   0.2666667   0.2666667   0.0000000), wk =   0.0109890
        k(   76) = (   0.2500000   0.2500000   0.0000000), wk =   0.0109890
        k(   77) = (   0.2333333   0.2333333   0.0000000), wk =   0.0109890
        k(   78) = (   0.2166667   0.2166667   0.0000000), wk =   0.0109890
        k(   79) = (   0.2000000   0.2000000   0.0000000), wk =   0.0109890
        k(   80) = (   0.1833333   0.1833333   0.0000000), wk =   0.0109890
        k(   81) = (   0.1666667   0.1666667   0.0000000), wk =   0.0109890
        k(   82) = (   0.1500000   0.1500000   0.0000000), wk =   0.0109890
        k(   83) = (   0.1333333   0.1333333   0.0000000), wk =   0.0109890
        k(   84) = (   0.1166667   0.1166667   0.0000000), wk =   0.0109890
        k(   85) = (   0.1000000   0.1000000   0.0000000), wk =   0.0109890
        k(   86) = (   0.0833333   0.0833333   0.0000000), wk =   0.0109890
        k(   87) = (   0.0666667   0.0666667   0.0000000), wk =   0.0109890
        k(   88) = (   0.0500000   0.0500000   0.0000000), wk =   0.0109890
        k(   89) = (   0.0333333   0.0333333   0.0000000), wk =   0.0109890
        k(   90) = (   0.0166667   0.0166667   0.0000000), wk =   0.0109890
        k(   91) = (   0.0000000   0.0000000   0.0000000), wk =   0.0109890
        k(   92) = (   0.0166667   0.0166667   0.0166667), wk =   0.0109890
        k(   93) = (   0.0333333   0.0333333   0.0333333), wk =   0.0109890
        k(   94) = (   0.0500000   0.0500000   0.0500000), wk =   0.0109890
        k(   95) = (   0.0666667   0.0666667   0.0666667), wk =   0.0109890
        k(   96) = (   0.0833333   0.0833333   0.0833333), wk =   0.0109890
        k(   97) = (   0.1000000   0.1000000   0.1000000), wk =   0.0109890
        k(   98) = (   0.1166667   0.1166667   0.1166667), wk =   0.0109890
        k(   99) = (   0.1333333   0.1333333   0.1333333), wk =   0.0109890
        k(  100) = (   0.1500000   0.1500000   0.1500000), wk =   0.0109890
        k(  101) = (   0.1666667   0.1666667   0.1666667), wk =   0.0109890
        k(  102) = (   0.1833333   0.1833333   0.1833333), wk =   0.0109890
        k(  103) = (   0.2000000   0.2000000   0.2000000), wk =   0.0109890
        k(  104) = (   0.2166667   0.2166667   0.2166667), wk =   0.0109890
        k(  105) = (   0.2333333   0.2333333   0.2333333), wk =   0.0109890
        k(  106) = (   0.2500000   0.2500000   0.2500000), wk =   0.0109890
        k(  107) = (   0.2666667   0.2666667   0.2666667), wk =   0.0109890
        k(  108) = (   0.2833333   0.2833333   0.2833333), wk =   0.0109890
        k(  109) = (   0.3000000   0.3000000   0.3000000), wk =   0.0109890
        k(  110) = (   0.3166667   0.3166667   0.3166667), wk =   0.0109890
        k(  111) = (   0.3333333   0.3333333   0.3333333), wk =   0.0109890
        k(  112) = (   0.3500000   0.3500000   0.3500000), wk =   0.0109890
        k(  113) = (   0.3666667   0.3666667   0.3666667), wk =   0.0109890
        k(  114) = (   0.3833333   0.3833333   0.3833333), wk =   0.0109890
        k(  115) = (   0.4000000   0.4000000   0.4000000), wk =   0.0109890
        k(  116) = (   0.4166667   0.4166667   0.4166667), wk =   0.0109890
        k(  117) = (   0.4333333   0.4333333   0.4333333), wk =   0.0109890
        k(  118) = (   0.4500000   0.4500000   0.4500000), wk =   0.0109890
        k(  119) = (   0.4666667   0.4666667   0.4666667), wk =   0.0109890
        k(  120) = (   0.4833333   0.4833333   0.4833333), wk =   0.0109890
        k(  121) = (   0.5000000   0.5000000   0.5000000), wk =   0.0109890
        k(  122) = (   0.4833333   0.5000000   0.4833333), wk =   0.0109890
        k(  123) = (   0.4666667   0.5000000   0.4666667), wk =   0.0109890
        k(  124) = (   0.4500000   0.5000000   0.4500000), wk =   0.0109890
        k(  125) = (   0.4333333   0.5000000   0.4333333), wk =   0.0109890
        k(  126) = (   0.4166667   0.5000000   0.4166667), wk =   0.0109890
        k(  127) = (   0.4000000   0.5000000   0.4000000), wk =   0.0109890
        k(  128) = (   0.3833333   0.5000000   0.3833333), wk =   0.0109890
        k(  129) = (   0.3666667   0.5000000   0.3666667), wk =   0.0109890
        k(  130) = (   0.3500000   0.5000000   0.3500000), wk =   0.0109890
        k(  131) = (   0.3333333   0.5000000   0.3333333), wk =   0.0109890
        k(  132) = (   0.3166667   0.5000000   0.3166667), wk =   0.0109890
        k(  133) = (   0.3000000   0.5000000   0.3000000), wk =   0.0109890
        k(  134) = (   0.2833333   0.5000000   0.2833333), wk =   0.0109890
        k(  135) = (   0.2666667   0.5000000   0.2666667), wk =   0.0109890
        k(  136) = (   0.2500000   0.5000000   0.2500000), wk =   0.0109890
        k(  137) = (   0.2333333   0.5000000   0.2333333), wk =   0.0109890
        k(  138) = (   0.2166667   0.5000000   0.2166667), wk =   0.0109890
        k(  139) = (   0.2000000   0.5000000   0.2000000), wk =   0.0109890
        k(  140) = (   0.1833333   0.5000000   0.1833333), wk =   0.0109890
        k(  141) = (   0.1666667   0.5000000   0.1666667), wk =   0.0109890
        k(  142) = (   0.1500000   0.5000000   0.1500000), wk =   0.0109890
        k(  143) = (   0.1333333   0.5000000   0.1333333), wk =   0.0109890
        k(  144) = (   0.1166667   0.5000000   0.1166667), wk =   0.0109890
        k(  145) = (   0.1000000   0.5000000   0.1000000), wk =   0.0109890
        k(  146) = (   0.0833333   0.5000000   0.0833333), wk =   0.0109890
        k(  147) = (   0.0666667   0.5000000   0.0666667), wk =   0.0109890
        k(  148) = (   0.0500000   0.5000000   0.0500000), wk =   0.0109890
        k(  149) = (   0.0333333   0.5000000   0.0333333), wk =   0.0109890
        k(  150) = (   0.0166667   0.5000000   0.0166667), wk =   0.0109890
        k(  151) = (   0.0000000   0.5000000   0.0000000), wk =   0.0109890
        k(  152) = (   0.5000000   0.5000000   0.5000000), wk =   0.0109890
        k(  153) = (   0.5000000   0.5000000   0.4833333), wk =   0.0109890
        k(  154) = (   0.5000000   0.5000000   0.4666667), wk =   0.0109890
        k(  155) = (   0.5000000   0.5000000   0.4500000), wk =   0.0109890
        k(  156) = (   0.5000000   0.5000000   0.4333333), wk =   0.0109890
        k(  157) = (   0.5000000   0.5000000   0.4166667), wk =   0.0109890
        k(  158) = (   0.5000000   0.5000000   0.4000000), wk =   0.0109890
        k(  159) = (   0.5000000   0.5000000   0.3833333), wk =   0.0109890
        k(  160) = (   0.5000000   0.5000000   0.3666667), wk =   0.0109890
        k(  161) = (   0.5000000   0.5000000   0.3500000), wk =   0.0109890
        k(  162) = (   0.5000000   0.5000000   0.3333333), wk =   0.0109890
        k(  163) = (   0.5000000   0.5000000   0.3166667), wk =   0.0109890
        k(  164) = (   0.5000000   0.5000000   0.3000000), wk =   0.0109890
        k(  165) = (   0.5000000   0.5000000   0.2833333), wk =   0.0109890
        k(  166) = (   0.5000000   0.5000000   0.2666667), wk =   0.0109890
        k(  167) = (   0.5000000   0.5000000   0.2500000), wk =   0.0109890
        k(  168) = (   0.5000000   0.5000000   0.2333333), wk =   0.0109890
        k(  169) = (   0.5000000   0.5000000   0.2166667), wk =   0.0109890
        k(  170) = (   0.5000000   0.5000000   0.2000000), wk =   0.0109890
        k(  171) = (   0.5000000   0.5000000   0.1833333), wk =   0.0109890
        k(  172) = (   0.5000000   0.5000000   0.1666667), wk =   0.0109890
        k(  173) = (   0.5000000   0.5000000   0.1500000), wk =   0.0109890
        k(  174) = (   0.5000000   0.5000000   0.1333333), wk =   0.0109890
        k(  175) = (   0.5000000   0.5000000   0.1166667), wk =   0.0109890
        k(  176) = (   0.5000000   0.5000000   0.1000000), wk =   0.0109890
        k(  177) = (   0.5000000   0.5000000   0.0833333), wk =   0.0109890
        k(  178) = (   0.5000000   0.5000000   0.0666667), wk =   0.0109890
        k(  179) = (   0.5000000   0.5000000   0.0500000), wk =   0.0109890
        k(  180) = (   0.5000000   0.5000000   0.0333333), wk =   0.0109890
        k(  181) = (   0.5000000   0.5000000   0.0166667), wk =   0.0109890
        k(  182) = (   0.5000000   0.5000000   0.0000000), wk =   0.0109890

                       cryst. coord.
        k(    1) = (   0.0000000   0.0000000   0.0000000), wk =   0.0109890
        k(    2) = (   0.0000000   0.0166667   0.0000000), wk =   0.0109890
        k(    3) = (   0.0000000   0.0333333   0.0000000), wk =   0.0109890
        k(    4) = (   0.0000000   0.0500000   0.0000000), wk =   0.0109890
        k(    5) = (   0.0000000   0.0666667   0.0000000), wk =   0.0109890
        k(    6) = (   0.0000000   0.0833333   0.0000000), wk =   0.0109890
        k(    7) = (   0.0000000   0.1000000   0.0000000), wk =   0.0109890
        k(    8) = (   0.0000000   0.1166667   0.0000000), wk =   0.0109890
        k(    9) = (   0.0000000   0.1333333   0.0000000), wk =   0.0109890
        k(   10) = (   0.0000000   0.1500000   0.0000000), wk =   0.0109890
        k(   11) = (   0.0000000   0.1666667   0.0000000), wk =   0.0109890
        k(   12) = (   0.0000000   0.1833333   0.0000000), wk =   0.0109890
        k(   13) = (   0.0000000   0.2000000   0.0000000), wk =   0.0109890
        k(   14) = (   0.0000000   0.2166667   0.0000000), wk =   0.0109890
        k(   15) = (   0.0000000   0.2333333   0.0000000), wk =   0.0109890
        k(   16) = (   0.0000000   0.2500000   0.0000000), wk =   0.0109890
        k(   17) = (   0.0000000   0.2666667   0.0000000), wk =   0.0109890
        k(   18) = (   0.0000000   0.2833333   0.0000000), wk =   0.0109890
        k(   19) = (   0.0000000   0.3000000   0.0000000), wk =   0.0109890
        k(   20) = (   0.0000000   0.3166667   0.0000000), wk =   0.0109890
        k(   21) = (   0.0000000   0.3333333   0.0000000), wk =   0.0109890
        k(   22) = (   0.0000000   0.3500000   0.0000000), wk =   0.0109890
        k(   23) = (   0.0000000   0.3666667   0.0000000), wk =   0.0109890
        k(   24) = (   0.0000000   0.3833333   0.0000000), wk =   0.0109890
        k(   25) = (   0.0000000   0.4000000   0.0000000), wk =   0.0109890
        k(   26) = (   0.0000000   0.4166667   0.0000000), wk =   0.0109890
        k(   27) = (   0.0000000   0.4333333   0.0000000), wk =   0.0109890
        k(   28) = (   0.0000000   0.4500000   0.0000000), wk =   0.0109890
        k(   29) = (   0.0000000   0.4666667   0.0000000), wk =   0.0109890
        k(   30) = (   0.0000000   0.4833333   0.0000000), wk =   0.0109890
        k(   31) = (   0.0000000   0.5000000   0.0000000), wk =   0.0109890
        k(   32) = (   0.0166667   0.5000000   0.0000000), wk =   0.0109890
        k(   33) = (   0.0333333   0.5000000   0.0000000), wk =   0.0109890
        k(   34) = (   0.0500000   0.5000000   0.0000000), wk =   0.0109890
        k(   35) = (   0.0666667   0.5000000   0.0000000), wk =   0.0109890
        k(   36) = (   0.0833333   0.5000000   0.0000000), wk =   0.0109890
        k(   37) = (   0.1000000   0.5000000   0.0000000), wk =   0.0109890
        k(   38) = (   0.1166667   0.5000000   0.0000000), wk =   0.0109890
        k(   39) = (   0.1333333   0.5000000   0.0000000), wk =   0.0109890
        k(   40) = (   0.1500000   0.5000000   0.0000000), wk =   0.0109890
        k(   41) = (   0.1666667   0.5000000   0.0000000), wk =   0.0109890
        k(   42) = (   0.1833333   0.5000000   0.0000000), wk =   0.0109890
        k(   43) = (   0.2000000   0.5000000   0.0000000), wk =   0.0109890
        k(   44) = (   0.2166667   0.5000000   0.0000000), wk =   0.0109890
        k(   45) = (   0.2333333   0.5000000   0.0000000), wk =   0.0109890
        k(   46) = (   0.2500000   0.5000000   0.0000000), wk =   0.0109890
        k(   47) = (   0.2666667   0.5000000   0.0000000), wk =   0.0109890
        k(   48) = (   0.2833333   0.5000000   0.0000000), wk =   0.0109890
        k(   49) = (   0.3000000   0.5000000   0.0000000), wk =   0.0109890
        k(   50) = (   0.3166667   0.5000000   0.0000000), wk =   0.0109890
        k(   51) = (   0.3333333   0.5000000   0.0000000), wk =   0.0109890
        k(   52) = (   0.3500000   0.5000000   0.0000000), wk =   0.0109890
        k(   53) = (   0.3666667   0.5000000   0.0000000), wk =   0.0109890
        k(   54) = (   0.3833333   0.5000000   0.0000000), wk =   0.0109890
        k(   55) = (   0.4000000   0.5000000   0.0000000), wk =   0.0109890
        k(   56) = (   0.4166667   0.5000000   0.0000000), wk =   0.0109890
        k(   57) = (   0.4333333   0.5000000   0.0000000), wk =   0.0109890
        k(   58) = (   0.4500000   0.5000000   0.0000000), wk =   0.0109890
        k(   59) = (   0.4666667   0.5000000   0.0000000), wk =   0.0109890
        k(   60) = (   0.4833333   0.5000000   0.0000000), wk =   0.0109890
        k(   61) = (   0.5000000   0.5000000   0.0000000), wk =   0.0109890
        k(   62) = (   0.4833333   0.4833333   0.0000000), wk =   0.0109890
        k(   63) = (   0.4666667   0.4666667   0.0000000), wk =   0.0109890
        k(   64) = (   0.4500000   0.4500000   0.0000000), wk =   0.0109890
        k(   65) = (   0.4333333   0.4333333   0.0000000), wk =   0.0109890
        k(   66) = (   0.4166667   0.4166667   0.0000000), wk =   0.0109890
        k(   67) = (   0.4000000   0.4000000   0.0000000), wk =   0.0109890
        k(   68) = (   0.3833333   0.3833333   0.0000000), wk =   0.0109890
        k(   69) = (   0.3666667   0.3666667   0.0000000), wk =   0.0109890
        k(   70) = (   0.3500000   0.3500000   0.0000000), wk =   0.0109890
        k(   71) = (   0.3333333   0.3333333   0.0000000), wk =   0.0109890
        k(   72) = (   0.3166667   0.3166667   0.0000000), wk =   0.0109890
        k(   73) = (   0.3000000   0.3000000   0.0000000), wk =   0.0109890
        k(   74) = (   0.2833333   0.2833333   0.0000000), wk =   0.0109890
        k(   75) = (   0.2666667   0.2666667   0.0000000), wk =   0.0109890
        k(   76) = (   0.2500000   0.2500000   0.0000000), wk =   0.0109890
        k(   77) = (   0.2333333   0.2333333   0.0000000), wk =   0.0109890
        k(   78) = (   0.2166667   0.2166667   0.0000000), wk =   0.0109890
        k(   79) = (   0.2000000   0.2000000   0.0000000), wk =   0.0109890
        k(   80) = (   0.1833333   0.1833333   0.0000000), wk =   0.0109890
        k(   81) = (   0.1666667   0.1666667   0.0000000), wk =   0.0109890
        k(   82) = (   0.1500000   0.1500000   0.0000000), wk =   0.0109890
        k(   83) = (   0.1333333   0.1333333   0.0000000), wk =   0.0109890
        k(   84) = (   0.1166667   0.1166667   0.0000000), wk =   0.0109890
        k(   85) = (   0.1000000   0.1000000   0.0000000), wk =   0.0109890
        k(   86) = (   0.0833333   0.0833333   0.0000000), wk =   0.0109890
        k(   87) = (   0.0666667   0.0666667   0.0000000), wk =   0.0109890
        k(   88) = (   0.0500000   0.0500000   0.0000000), wk =   0.0109890
        k(   89) = (   0.0333333   0.0333333   0.0000000), wk =   0.0109890
        k(   90) = (   0.0166667   0.0166667   0.0000000), wk =   0.0109890
        k(   91) = (   0.0000000   0.0000000   0.0000000), wk =   0.0109890
        k(   92) = (   0.0166667   0.0166667   0.0166667), wk =   0.0109890
        k(   93) = (   0.0333333   0.0333333   0.0333333), wk =   0.0109890
        k(   94) = (   0.0500000   0.0500000   0.0500000), wk =   0.0109890
        k(   95) = (   0.0666667   0.0666667   0.0666667), wk =   0.0109890
        k(   96) = (   0.0833333   0.0833333   0.0833333), wk =   0.0109890
        k(   97) = (   0.1000000   0.1000000   0.1000000), wk =   0.0109890
        k(   98) = (   0.1166667   0.1166667   0.1166667), wk =   0.0109890
        k(   99) = (   0.1333333   0.1333333   0.1333333), wk =   0.0109890
        k(  100) = (   0.1500000   0.1500000   0.1500000), wk =   0.0109890
        k(  101) = (   0.1666667   0.1666667   0.1666667), wk =   0.0109890
        k(  102) = (   0.1833333   0.1833333   0.1833333), wk =   0.0109890
        k(  103) = (   0.2000000   0.2000000   0.2000000), wk =   0.0109890
        k(  104) = (   0.2166667   0.2166667   0.2166667), wk =   0.0109890
        k(  105) = (   0.2333333   0.2333333   0.2333333), wk =   0.0109890
        k(  106) = (   0.2500000   0.2500000   0.2500000), wk =   0.0109890
        k(  107) = (   0.2666667   0.2666667   0.2666667), wk =   0.0109890
        k(  108) = (   0.2833333   0.2833333   0.2833333), wk =   0.0109890
        k(  109) = (   0.3000000   0.3000000   0.3000000), wk =   0.0109890
        k(  110) = (   0.3166667   0.3166667   0.3166667), wk =   0.0109890
        k(  111) = (   0.3333333   0.3333333   0.3333333), wk =   0.0109890
        k(  112) = (   0.3500000   0.3500000   0.3500000), wk =   0.0109890
        k(  113) = (   0.3666667   0.3666667   0.3666667), wk =   0.0109890
        k(  114) = (   0.3833333   0.3833333   0.3833333), wk =   0.0109890
        k(  115) = (   0.4000000   0.4000000   0.4000000), wk =   0.0109890
        k(  116) = (   0.4166667   0.4166667   0.4166667), wk =   0.0109890
        k(  117) = (   0.4333333   0.4333333   0.4333333), wk =   0.0109890
        k(  118) = (   0.4500000   0.4500000   0.4500000), wk =   0.0109890
        k(  119) = (   0.4666667   0.4666667   0.4666667), wk =   0.0109890
        k(  120) = (   0.4833333   0.4833333   0.4833333), wk =   0.0109890
        k(  121) = (   0.5000000   0.5000000   0.5000000), wk =   0.0109890
        k(  122) = (   0.4833333   0.5000000   0.4833333), wk =   0.0109890
        k(  123) = (   0.4666667   0.5000000   0.4666667), wk =   0.0109890
        k(  124) = (   0.4500000   0.5000000   0.4500000), wk =   0.0109890
        k(  125) = (   0.4333333   0.5000000   0.4333333), wk =   0.0109890
        k(  126) = (   0.4166667   0.5000000   0.4166667), wk =   0.0109890
        k(  127) = (   0.4000000   0.5000000   0.4000000), wk =   0.0109890
        k(  128) = (   0.3833333   0.5000000   0.3833333), wk =   0.0109890
        k(  129) = (   0.3666667   0.5000000   0.3666667), wk =   0.0109890
        k(  130) = (   0.3500000   0.5000000   0.3500000), wk =   0.0109890
        k(  131) = (   0.3333333   0.5000000   0.3333333), wk =   0.0109890
        k(  132) = (   0.3166667   0.5000000   0.3166667), wk =   0.0109890
        k(  133) = (   0.3000000   0.5000000   0.3000000), wk =   0.0109890
        k(  134) = (   0.2833333   0.5000000   0.2833333), wk =   0.0109890
        k(  135) = (   0.2666667   0.5000000   0.2666667), wk =   0.0109890
        k(  136) = (   0.2500000   0.5000000   0.2500000), wk =   0.0109890
        k(  137) = (   0.2333333   0.5000000   0.2333333), wk =   0.0109890
        k(  138) = (   0.2166667   0.5000000   0.2166667), wk =   0.0109890
        k(  139) = (   0.2000000   0.5000000   0.2000000), wk =   0.0109890
        k(  140) = (   0.1833333   0.5000000   0.1833333), wk =   0.0109890
        k(  141) = (   0.1666667   0.5000000   0.1666667), wk =   0.0109890
        k(  142) = (   0.1500000   0.5000000   0.1500000), wk =   0.0109890
        k(  143) = (   0.1333333   0.5000000   0.1333333), wk =   0.0109890
        k(  144) = (   0.1166667   0.5000000   0.1166667), wk =   0.0109890
        k(  145) = (   0.1000000   0.5000000   0.1000000), wk =   0.0109890
        k(  146) = (   0.0833333   0.5000000   0.0833333), wk =   0.0109890
        k(  147) = (   0.0666667   0.5000000   0.0666667), wk =   0.0109890
        k(  148) = (   0.0500000   0.5000000   0.0500000), wk =   0.0109890
        k(  149) = (   0.0333333   0.5000000   0.0333333), wk =   0.0109890
        k(  150) = (   0.0166667   0.5000000   0.0166667), wk =   0.0109890
        k(  151) = (   0.0000000   0.5000000   0.0000000), wk =   0.0109890
        k(  152) = (   0.5000000   0.5000000   0.5000000), wk =   0.0109890
        k(  153) = (   0.5000000   0.5000000   0.4833333), wk =   0.0109890
        k(  154) = (   0.5000000   0.5000000   0.4666667), wk =   0.0109890
        k(  155) = (   0.5000000   0.5000000   0.4500000), wk =   0.0109890
        k(  156) = (   0.5000000   0.5000000   0.4333333), wk =   0.0109890
        k(  157) = (   0.5000000   0.5000000   0.4166667), wk =   0.0109890
        k(  158) = (   0.5000000   0.5000000   0.4000000), wk =   0.0109890
        k(  159) = (   0.5000000   0.5000000   0.3833333), wk =   0.0109890
        k(  160) = (   0.5000000   0.5000000   0.3666667), wk =   0.0109890
        k(  161) = (   0.5000000   0.5000000   0.3500000), wk =   0.0109890
        k(  162) = (   0.5000000   0.5000000   0.3333333), wk =   0.0109890
        k(  163) = (   0.5000000   0.5000000   0.3166667), wk =   0.0109890
        k(  164) = (   0.5000000   0.5000000   0.3000000), wk =   0.0109890
        k(  165) = (   0.5000000   0.5000000   0.2833333), wk =   0.0109890
        k(  166) = (   0.5000000   0.5000000   0.2666667), wk =   0.0109890
        k(  167) = (   0.5000000   0.5000000   0.2500000), wk =   0.0109890
        k(  168) = (   0.5000000   0.5000000   0.2333333), wk =   0.0109890
        k(  169) = (   0.5000000   0.5000000   0.2166667), wk =   0.0109890
        k(  170) = (   0.5000000   0.5000000   0.2000000), wk =   0.0109890
        k(  171) = (   0.5000000   0.5000000   0.1833333), wk =   0.0109890
        k(  172) = (   0.5000000   0.5000000   0.1666667), wk =   0.0109890
        k(  173) = (   0.5000000   0.5000000   0.1500000), wk =   0.0109890
        k(  174) = (   0.5000000   0.5000000   0.1333333), wk =   0.0109890
        k(  175) = (   0.5000000   0.5000000   0.1166667), wk =   0.0109890
        k(  176) = (   0.5000000   0.5000000   0.1000000), wk =   0.0109890
        k(  177) = (   0.5000000   0.5000000   0.0833333), wk =   0.0109890
        k(  178) = (   0.5000000   0.5000000   0.0666667), wk =   0.0109890
        k(  179) = (   0.5000000   0.5000000   0.0500000), wk =   0.0109890
        k(  180) = (   0.5000000   0.5000000   0.0333333), wk =   0.0109890
        k(  181) = (   0.5000000   0.5000000   0.0166667), wk =   0.0109890
        k(  182) = (   0.5000000   0.5000000   0.0000000), wk =   0.0109890

     Dense  grid:   479769 G-vectors     FFT dimensions: ( 100, 100, 100)

     Dynamical RAM for                 wfc:      16.46 MB

     Dynamical RAM for     wfc (w. buffer):      16.46 MB

     Dynamical RAM for           str. fact:      10.98 MB

     Dynamical RAM for           local pot:       0.00 MB

     Dynamical RAM for          nlocal pot:     219.50 MB

     Dynamical RAM for                qrad:       3.05 MB

     Dynamical RAM for          rho,v,vnew:      22.43 MB

     Dynamical RAM for           G-vectors:      15.56 MB

     Dynamical RAM for          h,s,v(r/c):       2.14 MB

     Dynamical RAM for          <psi|beta>:       0.26 MB

     Dynamical RAM for                 psi:      98.77 MB

     Dynamical RAM for                hpsi:      98.77 MB

     Dynamical RAM for                spsi:      98.77 MB

     Dynamical RAM for      wfcinit/wfcrot:     250.46 MB

     Dynamical RAM for           addusdens:     768.67 MB

     Estimated static dynamical RAM per process >     321.69 MB

     Estimated max dynamical RAM per process >       1.06 GB

     Estimated total dynamical RAM >       2.13 GB

     Check: negative core charge=   -0.000001

     The potential is recalculated from file :
     ../out/aiida.save/charge-density

     Starting wfcs are  272 randomized atomic wfcs
     Checking if some PAW data can be deallocated... 
       PAW data deallocated on    1 nodes for type:  3

     Band Structure Calculation
     Davidson diagonalization with overlap

     Computing kpt #:     1  of   182
     total cpu time spent up to now is      283.1 secs

     Computing kpt #:     2  of   182
     total cpu time spent up to now is      559.6 secs

     Computing kpt #:     3  of   182
     total cpu time spent up to now is      876.2 secs

     Computing kpt #:     4  of   182
     total cpu time spent up to now is     1136.0 secs

     Computing kpt #:     5  of   182
     total cpu time spent up to now is     1395.6 secs

     Computing kpt #:     6  of   182
     total cpu time spent up to now is     1654.4 secs

     Computing kpt #:     7  of   182
     total cpu time spent up to now is     1913.9 secs

     Computing kpt #:     8  of   182
     total cpu time spent up to now is     2172.8 secs

     Computing kpt #:     9  of   182
     total cpu time spent up to now is     2478.7 secs

     Computing kpt #:    10  of   182
     total cpu time spent up to now is     2808.9 secs

     Computing kpt #:    11  of   182
     total cpu time spent up to now is     3152.9 secs

     Computing kpt #:    12  of   182
     total cpu time spent up to now is     3487.2 secs

     Computing kpt #:    13  of   182
     total cpu time spent up to now is     3802.1 secs

     Computing kpt #:    14  of   182
     total cpu time spent up to now is     4062.7 secs

     Computing kpt #:    15  of   182
     total cpu time spent up to now is     4331.6 secs

     Computing kpt #:    16  of   182
     total cpu time spent up to now is     4596.6 secs

     Computing kpt #:    17  of   182
     total cpu time spent up to now is     4916.6 secs

     Computing kpt #:    18  of   182
     total cpu time spent up to now is     5172.6 secs

     Computing kpt #:    19  of   182
     total cpu time spent up to now is     5431.4 secs

     Computing kpt #:    20  of   182
     total cpu time spent up to now is     5734.5 secs

     Computing kpt #:    21  of   182
     total cpu time spent up to now is     5988.8 secs

     Computing kpt #:    22  of   182
     total cpu time spent up to now is     6243.3 secs

     Computing kpt #:    23  of   182
     total cpu time spent up to now is     6499.3 secs

     Computing kpt #:    24  of   182
     total cpu time spent up to now is     6754.7 secs

     Computing kpt #:    25  of   182
     total cpu time spent up to now is     7009.2 secs

     Computing kpt #:    26  of   182
     total cpu time spent up to now is     7246.8 secs

     Computing kpt #:    27  of   182
     total cpu time spent up to now is     7447.7 secs

     Computing kpt #:    28  of   182
     total cpu time spent up to now is     7732.1 secs

     Computing kpt #:    29  of   182
     total cpu time spent up to now is     7966.0 secs

     Computing kpt #:    30  of   182
     total cpu time spent up to now is     8197.4 secs

     Computing kpt #:    31  of   182
     total cpu time spent up to now is     8480.9 secs

     Computing kpt #:    32  of   182
     total cpu time spent up to now is     8715.2 secs

     Computing kpt #:    33  of   182
     total cpu time spent up to now is     8948.0 secs

     Computing kpt #:    34  of   182
     total cpu time spent up to now is     9182.1 secs

     Computing kpt #:    35  of   182
     total cpu time spent up to now is     9424.5 secs

     Computing kpt #:    36  of   182
     total cpu time spent up to now is     9659.8 secs

     Computing kpt #:    37  of   182
     total cpu time spent up to now is     9892.0 secs

     Computing kpt #:    38  of   182
     total cpu time spent up to now is    10128.4 secs

     Computing kpt #:    39  of   182
     total cpu time spent up to now is    10363.5 secs

     Computing kpt #:    40  of   182
     total cpu time spent up to now is    10596.8 secs

     Computing kpt #:    41  of   182
     total cpu time spent up to now is    10832.3 secs

     Computing kpt #:    42  of   182
     total cpu time spent up to now is    11063.8 secs

     Computing kpt #:    43  of   182
     total cpu time spent up to now is    11300.9 secs

     Computing kpt #:    44  of   182
     total cpu time spent up to now is    11582.6 secs

     Computing kpt #:    45  of   182
     total cpu time spent up to now is    11841.0 secs

     Computing kpt #:    46  of   182
     total cpu time spent up to now is    12057.2 secs

     Computing kpt #:    47  of   182
     total cpu time spent up to now is    12270.2 secs

     Computing kpt #:    48  of   182
     total cpu time spent up to now is    12472.4 secs

     Computing kpt #:    49  of   182
     total cpu time spent up to now is    12751.9 secs

     Computing kpt #:    50  of   182
     total cpu time spent up to now is    12967.1 secs

     Computing kpt #:    51  of   182
     total cpu time spent up to now is    13177.9 secs

     Computing kpt #:    52  of   182
     total cpu time spent up to now is    13394.9 secs

     Computing kpt #:    53  of   182
     total cpu time spent up to now is    13587.7 secs

     Computing kpt #:    54  of   182
     total cpu time spent up to now is    13763.6 secs

     Computing kpt #:    55  of   182
     total cpu time spent up to now is    13939.7 secs

     Computing kpt #:    56  of   182
     total cpu time spent up to now is    14125.5 secs

     Computing kpt #:    57  of   182
     total cpu time spent up to now is    14314.2 secs

     Computing kpt #:    58  of   182
     total cpu time spent up to now is    14506.3 secs

     Computing kpt #:    59  of   182
     total cpu time spent up to now is    14695.3 secs

     Computing kpt #:    60  of   182
     total cpu time spent up to now is    14889.3 secs

     Computing kpt #:    61  of   182
     total cpu time spent up to now is    15080.8 secs

     Computing kpt #:    62  of   182
     total cpu time spent up to now is    15268.9 secs

     Computing kpt #:    63  of   182
     total cpu time spent up to now is    15479.9 secs

     Computing kpt #:    64  of   182
     total cpu time spent up to now is    15654.4 secs

     Computing kpt #:    65  of   182
     total cpu time spent up to now is    15829.4 secs

     Computing kpt #:    66  of   182
     total cpu time spent up to now is    16005.6 secs

     Computing kpt #:    67  of   182
     total cpu time spent up to now is    16196.1 secs

     Computing kpt #:    68  of   182
     total cpu time spent up to now is    16414.2 secs

     Computing kpt #:    69  of   182
     total cpu time spent up to now is    16640.2 secs

     Computing kpt #:    70  of   182
     total cpu time spent up to now is    16842.4 secs

     Computing kpt #:    71  of   182
     total cpu time spent up to now is    17084.7 secs

     Computing kpt #:    72  of   182
     total cpu time spent up to now is    17320.8 secs

     Computing kpt #:    73  of   182
     total cpu time spent up to now is    17560.4 secs

     Computing kpt #:    74  of   182
     total cpu time spent up to now is    17794.3 secs

     Computing kpt #:    75  of   182
     total cpu time spent up to now is    18032.2 secs

     Computing kpt #:    76  of   182
     total cpu time spent up to now is    18269.8 secs

     Computing kpt #:    77  of   182
     total cpu time spent up to now is    18505.8 secs

     Computing kpt #:    78  of   182
     total cpu time spent up to now is    18741.0 secs

     Computing kpt #:    79  of   182
     total cpu time spent up to now is    18977.9 secs

     Computing kpt #:    80  of   182
     total cpu time spent up to now is    19215.2 secs

     Computing kpt #:    81  of   182
     total cpu time spent up to now is    19453.8 secs

     Computing kpt #:    82  of   182
     total cpu time spent up to now is    19691.3 secs

     Computing kpt #:    83  of   182
     total cpu time spent up to now is    19929.0 secs

     Computing kpt #:    84  of   182
     total cpu time spent up to now is    20166.0 secs

     Computing kpt #:    85  of   182
     total cpu time spent up to now is    20403.4 secs

     Computing kpt #:    86  of   182
     total cpu time spent up to now is    20640.9 secs

     Computing kpt #:    87  of   182
     total cpu time spent up to now is    20930.5 secs

     Computing kpt #:    88  of   182
     total cpu time spent up to now is    21169.9 secs

     Computing kpt #:    89  of   182
     total cpu time spent up to now is    21409.6 secs

     Computing kpt #:    90  of   182
     total cpu time spent up to now is    21649.3 secs

     Computing kpt #:    91  of   182
     total cpu time spent up to now is    21889.8 secs

     Computing kpt #:    92  of   182
     total cpu time spent up to now is    22176.9 secs

     Computing kpt #:    93  of   182
     total cpu time spent up to now is    22413.9 secs

     Computing kpt #:    94  of   182
     total cpu time spent up to now is    22651.1 secs

     Computing kpt #:    95  of   182
     total cpu time spent up to now is    22937.4 secs

     Computing kpt #:    96  of   182
     total cpu time spent up to now is    23231.3 secs

     Computing kpt #:    97  of   182
     total cpu time spent up to now is    23529.8 secs

     Computing kpt #:    98  of   182
     total cpu time spent up to now is    23764.9 secs

     Computing kpt #:    99  of   182
     total cpu time spent up to now is    24003.6 secs

     Computing kpt #:   100  of   182
     total cpu time spent up to now is    24291.8 secs

     Computing kpt #:   101  of   182
     total cpu time spent up to now is    24529.2 secs

     Computing kpt #:   102  of   182
     total cpu time spent up to now is    24812.0 secs

     Computing kpt #:   103  of   182
     total cpu time spent up to now is    25045.4 secs

     Computing kpt #:   104  of   182
     total cpu time spent up to now is    25278.1 secs

     Computing kpt #:   105  of   182
     total cpu time spent up to now is    25515.4 secs

     Computing kpt #:   106  of   182
     total cpu time spent up to now is    25793.0 secs

     Computing kpt #:   107  of   182
     total cpu time spent up to now is    26006.8 secs

     Computing kpt #:   108  of   182
     total cpu time spent up to now is    26198.9 secs

     Computing kpt #:   109  of   182
     total cpu time spent up to now is    26413.2 secs

     Computing kpt #:   110  of   182
     total cpu time spent up to now is    26588.3 secs

     Computing kpt #:   111  of   182
     total cpu time spent up to now is    26781.0 secs

     Computing kpt #:   112  of   182
     total cpu time spent up to now is    26970.0 secs

     Computing kpt #:   113  of   182
     total cpu time spent up to now is    27161.2 secs

     Computing kpt #:   114  of   182
     total cpu time spent up to now is    27348.5 secs

     Computing kpt #:   115  of   182
     total cpu time spent up to now is    27518.7 secs

     Computing kpt #:   116  of   182
     total cpu time spent up to now is    27686.4 secs

     Computing kpt #:   117  of   182
     total cpu time spent up to now is    27870.9 secs

     Computing kpt #:   118  of   182
     total cpu time spent up to now is    28054.3 secs

     Computing kpt #:   119  of   182
     total cpu time spent up to now is    28221.9 secs

     Computing kpt #:   120  of   182
     total cpu time spent up to now is    28387.8 secs

     Computing kpt #:   121  of   182
     total cpu time spent up to now is    28551.3 secs

     Computing kpt #:   122  of   182
     total cpu time spent up to now is    28718.5 secs

     Computing kpt #:   123  of   182
     total cpu time spent up to now is    28885.7 secs

     Computing kpt #:   124  of   182
     total cpu time spent up to now is    29054.9 secs

     Computing kpt #:   125  of   182
     total cpu time spent up to now is    29237.6 secs

     Computing kpt #:   126  of   182
     total cpu time spent up to now is    29404.5 secs

     Computing kpt #:   127  of   182
     total cpu time spent up to now is    29590.4 secs

     Computing kpt #:   128  of   182
     total cpu time spent up to now is    29774.8 secs

     Computing kpt #:   129  of   182
     total cpu time spent up to now is    29963.0 secs

     Computing kpt #:   130  of   182
     total cpu time spent up to now is    30151.5 secs

     Computing kpt #:   131  of   182
     total cpu time spent up to now is    30343.3 secs

     Computing kpt #:   132  of   182
     total cpu time spent up to now is    30531.1 secs

     Computing kpt #:   133  of   182
     total cpu time spent up to now is    30725.1 secs

     Computing kpt #:   134  of   182
     total cpu time spent up to now is    30900.3 secs

     Computing kpt #:   135  of   182
     total cpu time spent up to now is    31089.1 secs

     Computing kpt #:   136  of   182
     total cpu time spent up to now is    31278.2 secs

     Computing kpt #:   137  of   182
     total cpu time spent up to now is    31468.0 secs

     Computing kpt #:   138  of   182
     total cpu time spent up to now is    31656.8 secs

     Computing kpt #:   139  of   182
     total cpu time spent up to now is    31857.1 secs

     Computing kpt #:   140  of   182
     total cpu time spent up to now is    32089.6 secs

     Computing kpt #:   141  of   182
     total cpu time spent up to now is    32291.0 secs

     Computing kpt #:   142  of   182
     total cpu time spent up to now is    32506.7 secs

     Computing kpt #:   143  of   182
     total cpu time spent up to now is    32707.6 secs

     Computing kpt #:   144  of   182
     total cpu time spent up to now is    32925.9 secs

     Computing kpt #:   145  of   182
     total cpu time spent up to now is    33194.5 secs

     Computing kpt #:   146  of   182
     total cpu time spent up to now is    33466.7 secs

     Computing kpt #:   147  of   182
     total cpu time spent up to now is    33685.0 secs

     Computing kpt #:   148  of   182
     total cpu time spent up to now is    33920.0 secs

     Computing kpt #:   149  of   182
     total cpu time spent up to now is    34156.5 secs

     Computing kpt #:   150  of   182
     total cpu time spent up to now is    34438.0 secs

     Computing kpt #:   151  of   182
     total cpu time spent up to now is    34720.9 secs

     Computing kpt #:   152  of   182
     total cpu time spent up to now is    34884.7 secs

     Computing kpt #:   153  of   182
     total cpu time spent up to now is    35049.5 secs

     Computing kpt #:   154  of   182
     total cpu time spent up to now is    35213.9 secs

     Computing kpt #:   155  of   182
     total cpu time spent up to now is    35381.4 secs

     Computing kpt #:   156  of   182
     total cpu time spent up to now is    35550.2 secs

     Computing kpt #:   157  of   182
     total cpu time spent up to now is    35720.2 secs

     Computing kpt #:   158  of   182
     total cpu time spent up to now is    35905.2 secs

     Computing kpt #:   159  of   182
     total cpu time spent up to now is    36091.5 secs

     Computing kpt #:   160  of   182
     total cpu time spent up to now is    36275.2 secs

     Computing kpt #:   161  of   182
     total cpu time spent up to now is    36462.6 secs

     Computing kpt #:   162  of   182
     total cpu time spent up to now is    36648.7 secs

     Computing kpt #:   163  of   182
     total cpu time spent up to now is    36834.8 secs

     Computing kpt #:   164  of   182
     total cpu time spent up to now is    37007.0 secs

     Computing kpt #:   165  of   182
     total cpu time spent up to now is    37197.8 secs

     Computing kpt #:   166  of   182
     total cpu time spent up to now is    37383.4 secs

     Computing kpt #:   167  of   182
     total cpu time spent up to now is    37575.7 secs

     Computing kpt #:   168  of   182
     total cpu time spent up to now is    37764.9 secs

     Computing kpt #:   169  of   182
     total cpu time spent up to now is    37938.4 secs

     Computing kpt #:   170  of   182
     total cpu time spent up to now is    38125.4 secs

     Computing kpt #:   171  of   182
     total cpu time spent up to now is    38298.7 secs

     Computing kpt #:   172  of   182
     total cpu time spent up to now is    38472.3 secs

     Computing kpt #:   173  of   182
     total cpu time spent up to now is    38662.7 secs

     Computing kpt #:   174  of   182
     total cpu time spent up to now is    38838.0 secs

     Computing kpt #:   175  of   182
     total cpu time spent up to now is    39013.9 secs

     Computing kpt #:   176  of   182
     total cpu time spent up to now is    39209.4 secs

     Computing kpt #:   177  of   182
     total cpu time spent up to now is    39404.5 secs

     Computing kpt #:   178  of   182
     total cpu time spent up to now is    39595.9 secs

     Computing kpt #:   179  of   182
     total cpu time spent up to now is    39784.1 secs

     Computing kpt #:   180  of   182
     total cpu time spent up to now is    39972.3 secs

     Computing kpt #:   181  of   182
     total cpu time spent up to now is    40146.9 secs

     Computing kpt #:   182  of   182
     total cpu time spent up to now is    40335.7 secs

     ethr =  2.84E-09,  avg # of iterations = 40.5

     total cpu time spent up to now is    40335.7 secs

     End of band structure calculation

          k = 0.0000 0.0000 0.0000 ( 60005 PWs)   bands (ev):

   -18.6027 -18.6025 -18.6025 -18.6025 -18.6023 -18.6023 -18.6023 -18.6021
   -14.0198 -14.0198 -14.0198 -14.0198 -14.0198 -14.0145 -14.0145 -14.0145
   -14.0091 -14.0091 -14.0091 -14.0037 -14.0036 -14.0035 -14.0035 -14.0035
   -13.9687 -13.9687 -13.9686 -13.9686 -13.9685 -13.9685 -13.9684 -13.9684
   -13.9683 -13.9683 -13.9682 -13.9681

          k = 0.0000 0.0167 0.0000 ( 59997 PWs)   bands (ev):

   -18.6027 -18.6025 -18.6025 -18.6025 -18.6023 -18.6023 -18.6023 -18.6021
   -14.0198 -14.0198 -14.0198 -14.0198 -14.0198 -14.0145 -14.0145 -14.0145
   -14.0091 -14.0091 -14.0091 -14.0037 -14.0036 -14.0036 -14.0035 -14.0035
   -13.9687 -13.9687 -13.9686 -13.9686 -13.9685 -13.9685 -13.9684 -13.9684
   -13.9684 -13.9683 -13.9682 -13.9682

          k = 0.0000 0.0333 0.0000 ( 60013 PWs)   bands (ev):

   -18.6027 -18.6025 -18.6025 -18.6025 -18.6023 -18.6023 -18.6023 -18.6021
   -14.0198 -14.0198 -14.0198 -14.0198 -14.0198 -14.0145 -14.0145 -14.0145
   -14.0091 -14.0091 -14.0091 -14.0037 -14.0037 -14.0036 -14.0036 -14.0035
   -13.9687 -13.9687 -13.9686 -13.9686 -13.9685 -13.9684 -13.9684 -13.9684
   -13.9683 -13.9683 -13.9683 -13.9682

          k = 0.0000 0.0500 0.0000 ( 60029 PWs)   bands (ev):

   -18.6027 -18.6025 -18.6025 -18.6025 -18.6023 -18.6023 -18.6023 -18.6021
   -14.0198 -14.0198 -14.0198 -14.0197 -14.0197 -14.0145 -14.0145 -14.0144
   -14.0092 -14.0091 -14.0091 -14.0037 -14.0036 -14.0036 -14.0036 -14.0036
   -13.9687 -13.9687 -13.9686 -13.9686 -13.9685 -13.9685 -13.9684 -13.9684
   -13.9684 -13.9684 -13.9682 -13.9682

          k = 0.0000 0.0667 0.0000 ( 60005 PWs)   bands (ev):

   -18.6027 -18.6025 -18.6025 -18.6025 -18.6023 -18.6023 -18.6023 -18.6021
   -14.0198 -14.0198 -14.0197 -14.0197 -14.0197 -14.0145 -14.0145 -14.0144
   -14.0092 -14.0091 -14.0090 -14.0037 -14.0037 -14.0037 -14.0036 -14.0036
   -13.9687 -13.9687 -13.9686 -13.9685 -13.9685 -13.9684 -13.9684 -13.9684
   -13.9684 -13.9683 -13.9682 -13.9681

          k = 0.0000 0.0833 0.0000 ( 59977 PWs)   bands (ev):

   -18.6027 -18.6025 -18.6025 -18.6025 -18.6023 -18.6023 -18.6023 -18.6021
   -14.0198 -14.0198 -14.0197 -14.0197 -14.0196 -14.0146 -14.0146 -14.0143
   -14.0093 -14.0090 -14.0090 -14.0038 -14.0037 -14.0037 -14.0036 -14.0036
   -13.9687 -13.9687 -13.9686 -13.9686 -13.9685 -13.9685 -13.9684 -13.9684
   -13.9683 -13.9683 -13.9682 -13.9681

          k = 0.0000 0.1000 0.0000 ( 59957 PWs)   bands (ev):

   -18.6027 -18.6025 -18.6025 -18.6025 -18.6023 -18.6023 -18.6023 -18.6021
   -14.0198 -14.0198 -14.0196 -14.0196 -14.0195 -14.0146 -14.0146 -14.0142
   -14.0094 -14.0090 -14.0090 -14.0039 -14.0037 -14.0037 -14.0036 -14.0036
   -13.9687 -13.9686 -13.9686 -13.9685 -13.9685 -13.9685 -13.9684 -13.9684
   -13.9684 -13.9683 -13.9682 -13.9681

[...]
   -14.0185 -14.0185 -14.0157 -14.0157 -14.0156 -14.0156 -14.0140 -14.0140
   -14.0095 -14.0095 -14.0078 -14.0078 -14.0078 -14.0078 -14.0049 -14.0049
   -13.9686 -13.9686 -13.9685 -13.9685 -13.9685 -13.9684 -13.9684 -13.9684
   -13.9683 -13.9683 -13.9683 -13.9682

          k = 0.1667 0.5000 0.1667 ( 59916 PWs)   bands (ev):

   -18.6026 -18.6026 -18.6024 -18.6024 -18.6024 -18.6024 -18.6022 -18.6022
   -14.0187 -14.0187 -14.0158 -14.0158 -14.0158 -14.0158 -14.0141 -14.0141
   -14.0094 -14.0094 -14.0077 -14.0077 -14.0077 -14.0077 -14.0047 -14.0047
   -13.9686 -13.9686 -13.9685 -13.9685 -13.9685 -13.9685 -13.9684 -13.9684
   -13.9683 -13.9683 -13.9683 -13.9683

          k = 0.1500 0.5000 0.1500 ( 59954 PWs)   bands (ev):

   -18.6026 -18.6026 -18.6024 -18.6024 -18.6024 -18.6024 -18.6022 -18.6022
   -14.0189 -14.0189 -14.0159 -14.0159 -14.0159 -14.0159 -14.0141 -14.0141
   -14.0093 -14.0093 -14.0076 -14.0076 -14.0076 -14.0076 -14.0045 -14.0045
   -13.9686 -13.9686 -13.9685 -13.9685 -13.9685 -13.9684 -13.9684 -13.9684
   -13.9683 -13.9683 -13.9683 -13.9682

          k = 0.1333 0.5000 0.1333 ( 59948 PWs)   bands (ev):

   -18.6026 -18.6026 -18.6024 -18.6024 -18.6024 -18.6024 -18.6022 -18.6022
   -14.0191 -14.0191 -14.0160 -14.0160 -14.0160 -14.0160 -14.0142 -14.0142
   -14.0093 -14.0093 -14.0075 -14.0075 -14.0075 -14.0075 -14.0043 -14.0043
   -13.9687 -13.9686 -13.9685 -13.9685 -13.9685 -13.9684 -13.9684 -13.9684
   -13.9684 -13.9683 -13.9683 -13.9682

          k = 0.1167 0.5000 0.1167 ( 59956 PWs)   bands (ev):

   -18.6026 -18.6026 -18.6024 -18.6024 -18.6024 -18.6024 -18.6022 -18.6022
   -14.0193 -14.0193 -14.0161 -14.0161 -14.0161 -14.0161 -14.0143 -14.0143
   -14.0092 -14.0092 -14.0074 -14.0074 -14.0074 -14.0074 -14.0041 -14.0041
   -13.9686 -13.9686 -13.9685 -13.9685 -13.9685 -13.9685 -13.9684 -13.9684
   -13.9683 -13.9683 -13.9683 -13.9683

          k = 0.1000 0.5000 0.1000 ( 59928 PWs)   bands (ev):

   -18.6026 -18.6026 -18.6024 -18.6024 -18.6024 -18.6024 -18.6022 -18.6022
   -14.0194 -14.0194 -14.0162 -14.0162 -14.0162 -14.0162 -14.0143 -14.0143
   -14.0092 -14.0092 -14.0073 -14.0073 -14.0073 -14.0073 -14.0040 -14.0040
   -13.9686 -13.9686 -13.9685 -13.9685 -13.9685 -13.9685 -13.9684 -13.9684
   -13.9684 -13.9683 -13.9683 -13.9683

          k = 0.0833 0.5000 0.0833 ( 59928 PWs)   bands (ev):

   -18.6026 -18.6026 -18.6024 -18.6024 -18.6024 -18.6024 -18.6022 -18.6022
   -14.0195 -14.0195 -14.0163 -14.0163 -14.0163 -14.0163 -14.0144 -14.0144
   -14.0091 -14.0091 -14.0072 -14.0072 -14.0072 -14.0072 -14.0039 -14.0038
   -13.9687 -13.9686 -13.9685 -13.9685 -13.9685 -13.9685 -13.9684 -13.9684
   -13.9684 -13.9683 -13.9683 -13.9683

          k = 0.0667 0.5000 0.0667 ( 59968 PWs)   bands (ev):

   -18.6026 -18.6026 -18.6024 -18.6024 -18.6024 -18.6024 -18.6022 -18.6022
   -14.0196 -14.0196 -14.0163 -14.0163 -14.0163 -14.0163 -14.0144 -14.0144
   -14.0091 -14.0091 -14.0072 -14.0072 -14.0072 -14.0072 -14.0038 -14.0038
   -13.9687 -13.9686 -13.9685 -13.9685 -13.9685 -13.9685 -13.9684 -13.9684
   -13.9684 -13.9683 -13.9683 -13.9682

          k = 0.0500 0.5000 0.0500 ( 59952 PWs)   bands (ev):

   -18.6026 -18.6026 -18.6024 -18.6024 -18.6024 -18.6024 -18.6022 -18.6022
   -14.0197 -14.0196 -14.0164 -14.0164 -14.0164 -14.0164 -14.0144 -14.0144
   -14.0091 -14.0091 -14.0071 -14.0071 -14.0071 -14.0071 -14.0037 -14.0037
   -13.9687 -13.9686 -13.9685 -13.9685 -13.9685 -13.9684 -13.9684 -13.9684
   -13.9683 -13.9683 -13.9683 -13.9682

          k = 0.0333 0.5000 0.0333 ( 59956 PWs)   bands (ev):

   -18.6026 -18.6026 -18.6024 -18.6024 -18.6024 -18.6024 -18.6022 -18.6022
   -14.0197 -14.0197 -14.0164 -14.0164 -14.0164 -14.0164 -14.0144 -14.0144
   -14.0091 -14.0091 -14.0071 -14.0071 -14.0071 -14.0071 -14.0036 -14.0036
   -13.9686 -13.9686 -13.9685 -13.9685 -13.9685 -13.9685 -13.9684 -13.9684
   -13.9683 -13.9683 -13.9683 -13.9681

          k = 0.0167 0.5000 0.0167 ( 59946 PWs)   bands (ev):

   -18.6026 -18.6026 -18.6024 -18.6024 -18.6024 -18.6024 -18.6022 -18.6022
   -14.0197 -14.0197 -14.0164 -14.0164 -14.0164 -14.0164 -14.0145 -14.0145
   -14.0090 -14.0090 -14.0071 -14.0071 -14.0071 -14.0071 -14.0036 -14.0036
   -13.9686 -13.9686 -13.9685 -13.9685 -13.9685 -13.9685 -13.9684 -13.9684
   -13.9684 -13.9683 -13.9683 -13.9683

          k = 0.0000 0.5000 0.0000 ( 60000 PWs)   bands (ev):

   -18.6026 -18.6026 -18.6024 -18.6024 -18.6024 -18.6024 -18.6022 -18.6022
   -14.0197 -14.0197 -14.0165 -14.0165 -14.0164 -14.0164 -14.0145 -14.0145
   -14.0090 -14.0090 -14.0071 -14.0071 -14.0071 -14.0071 -14.0036 -14.0036
   -13.9687 -13.9686 -13.9686 -13.9685 -13.9685 -13.9684 -13.9684 -13.9684
   -13.9684 -13.9683 -13.9683 -13.9682

          k = 0.5000 0.5000 0.5000 ( 60016 PWs)   bands (ev):

   -18.6024 -18.6024 -18.6024 -18.6024 -18.6024 -18.6024 -18.6024 -18.6024
   -14.0118 -14.0118 -14.0118 -14.0117 -14.0117 -14.0117 -14.0117 -14.0117
   -14.0117 -14.0117 -14.0117 -14.0117 -14.0117 -14.0117 -14.0117 -14.0117
   -13.9684 -13.9684 -13.9684 -13.9684 -13.9684 -13.9684 -13.9684 -13.9684
   -13.9684 -13.9684 -13.9684 -13.9684

          k = 0.5000 0.5000 0.4833 ( 60000 PWs)   bands (ev):

   -18.6024 -18.6024 -18.6024 -18.6024 -18.6024 -18.6024 -18.6024 -18.6024
   -14.0120 -14.0120 -14.0120 -14.0120 -14.0118 -14.0117 -14.0117 -14.0117
   -14.0117 -14.0117 -14.0117 -14.0117 -14.0115 -14.0115 -14.0114 -14.0114
   -13.9684 -13.9684 -13.9684 -13.9684 -13.9684 -13.9684 -13.9684 -13.9684
   -13.9684 -13.9684 -13.9684 -13.9684

          k = 0.5000 0.5000 0.4667 ( 59948 PWs)   bands (ev):

   -18.6024 -18.6024 -18.6024 -18.6024 -18.6024 -18.6024 -18.6024 -18.6024
   -14.0123 -14.0123 -14.0123 -14.0123 -14.0117 -14.0117 -14.0117 -14.0117
   -14.0117 -14.0117 -14.0117 -14.0117 -14.0112 -14.0112 -14.0112 -14.0112
   -13.9684 -13.9684 -13.9684 -13.9684 -13.9684 -13.9684 -13.9684 -13.9684
   -13.9684 -13.9684 -13.9684 -13.9684

          k = 0.5000 0.5000 0.4500 ( 59972 PWs)   bands (ev):

   -18.6024 -18.6024 -18.6024 -18.6024 -18.6024 -18.6024 -18.6024 -18.6024
   -14.0126 -14.0126 -14.0126 -14.0126 -14.0117 -14.0117 -14.0117 -14.0117
   -14.0117 -14.0117 -14.0117 -14.0117 -14.0109 -14.0109 -14.0109 -14.0109
   -13.9684 -13.9684 -13.9684 -13.9684 -13.9684 -13.9684 -13.9684 -13.9684
   -13.9684 -13.9684 -13.9684 -13.9684

          k = 0.5000 0.5000 0.4333 ( 59952 PWs)   bands (ev):

   -18.6024 -18.6024 -18.6024 -18.6024 -18.6023 -18.6023 -18.6023 -18.6023
   -14.0129 -14.0129 -14.0129 -14.0129 -14.0117 -14.0117 -14.0117 -14.0117
   -14.0117 -14.0117 -14.0117 -14.0117 -14.0106 -14.0106 -14.0106 -14.0106
   -13.9684 -13.9684 -13.9684 -13.9684 -13.9684 -13.9684 -13.9684 -13.9684
   -13.9684 -13.9684 -13.9684 -13.9684

          k = 0.5000 0.5000 0.4167 ( 59972 PWs)   bands (ev):

   -18.6024 -18.6024 -18.6024 -18.6024 -18.6023 -18.6023 -18.6023 -18.6023
   -14.0132 -14.0132 -14.0131 -14.0131 -14.0117 -14.0117 -14.0117 -14.0117
   -14.0117 -14.0117 -14.0117 -14.0117 -14.0103 -14.0103 -14.0103 -14.0103
   -13.9684 -13.9684 -13.9684 -13.9684 -13.9684 -13.9684 -13.9684 -13.9684
   -13.9684 -13.9684 -13.9684 -13.9684

          k = 0.5000 0.5000 0.4000 ( 59972 PWs)   bands (ev):

   -18.6024 -18.6024 -18.6024 -18.6024 -18.6023 -18.6023 -18.6023 -18.6023
   -14.0134 -14.0134 -14.0134 -14.0134 -14.0118 -14.0117 -14.0117 -14.0117
   -14.0117 -14.0117 -14.0117 -14.0117 -14.0101 -14.0101 -14.0101 -14.0101
   -13.9685 -13.9685 -13.9685 -13.9684 -13.9684 -13.9684 -13.9684 -13.9684
   -13.9684 -13.9684 -13.9684 -13.9684

          k = 0.5000 0.5000 0.3833 ( 59996 PWs)   bands (ev):

   -18.6024 -18.6024 -18.6024 -18.6024 -18.6023 -18.6023 -18.6023 -18.6023
   -14.0137 -14.0137 -14.0137 -14.0137 -14.0118 -14.0118 -14.0118 -14.0117
   -14.0117 -14.0117 -14.0117 -14.0117 -14.0098 -14.0098 -14.0098 -14.0098
   -13.9685 -13.9685 -13.9685 -13.9684 -13.9684 -13.9684 -13.9684 -13.9684
   -13.9684 -13.9684 -13.9684 -13.9684

          k = 0.5000 0.5000 0.3667 ( 59972 PWs)   bands (ev):

   -18.6024 -18.6024 -18.6024 -18.6024 -18.6023 -18.6023 -18.6023 -18.6023
   -14.0139 -14.0139 -14.0139 -14.0139 -14.0118 -14.0118 -14.0118 -14.0117
   -14.0117 -14.0117 -14.0117 -14.0117 -14.0096 -14.0096 -14.0095 -14.0095
   -13.9685 -13.9685 -13.9685 -13.9685 -13.9684 -13.9684 -13.9684 -13.9684
   -13.9684 -13.9684 -13.9684 -13.9684

          k = 0.5000 0.5000 0.3500 ( 59944 PWs)   bands (ev):

   -18.6024 -18.6024 -18.6024 -18.6024 -18.6023 -18.6023 -18.6023 -18.6023
   -14.0142 -14.0142 -14.0142 -14.0142 -14.0118 -14.0118 -14.0118 -14.0117
   -14.0117 -14.0117 -14.0117 -14.0117 -14.0093 -14.0093 -14.0093 -14.0093
   -13.9685 -13.9685 -13.9685 -13.9684 -13.9684 -13.9684 -13.9684 -13.9684
   -13.9684 -13.9684 -13.9684 -13.9683

          k = 0.5000 0.5000 0.3333 ( 59952 PWs)   bands (ev):

   -18.6024 -18.6024 -18.6024 -18.6024 -18.6023 -18.6023 -18.6023 -18.6023
   -14.0144 -14.0144 -14.0144 -14.0144 -14.0118 -14.0118 -14.0118 -14.0117
   -14.0117 -14.0117 -14.0117 -14.0117 -14.0090 -14.0090 -14.0090 -14.0090
   -13.9685 -13.9685 -13.9685 -13.9685 -13.9684 -13.9684 -13.9684 -13.9684
   -13.9684 -13.9684 -13.9684 -13.9684

          k = 0.5000 0.5000 0.3167 ( 59944 PWs)   bands (ev):

   -18.6024 -18.6024 -18.6024 -18.6024 -18.6023 -18.6023 -18.6023 -18.6023
   -14.0147 -14.0147 -14.0147 -14.0147 -14.0118 -14.0118 -14.0118 -14.0117
   -14.0117 -14.0117 -14.0117 -14.0117 -14.0088 -14.0088 -14.0088 -14.0088
   -13.9685 -13.9685 -13.9684 -13.9684 -13.9684 -13.9684 -13.9684 -13.9684
   -13.9684 -13.9684 -13.9683 -13.9683

          k = 0.5000 0.5000 0.3000 ( 59968 PWs)   bands (ev):

   -18.6024 -18.6024 -18.6024 -18.6024 -18.6023 -18.6023 -18.6023 -18.6023
   -14.0149 -14.0149 -14.0149 -14.0149 -14.0118 -14.0118 -14.0118 -14.0118
   -14.0117 -14.0117 -14.0117 -14.0117 -14.0086 -14.0086 -14.0086 -14.0085
   -13.9685 -13.9685 -13.9685 -13.9684 -13.9684 -13.9684 -13.9684 -13.9684
   -13.9684 -13.9684 -13.9684 -13.9683

          k = 0.5000 0.5000 0.2833 ( 59956 PWs)   bands (ev):

   -18.6024 -18.6024 -18.6024 -18.6024 -18.6023 -18.6023 -18.6023 -18.6023
   -14.0151 -14.0151 -14.0151 -14.0151 -14.0118 -14.0118 -14.0118 -14.0117
   -14.0117 -14.0117 -14.0117 -14.0117 -14.0083 -14.0083 -14.0083 -14.0083
   -13.9685 -13.9685 -13.9685 -13.9684 -13.9684 -13.9684 -13.9684 -13.9684
   -13.9684 -13.9684 -13.9683 -13.9683

          k = 0.5000 0.5000 0.2667 ( 59920 PWs)   bands (ev):

   -18.6024 -18.6024 -18.6024 -18.6024 -18.6023 -18.6023 -18.6023 -18.6023
   -14.0154 -14.0154 -14.0153 -14.0153 -14.0118 -14.0118 -14.0118 -14.0117
   -14.0117 -14.0117 -14.0117 -14.0117 -14.0081 -14.0081 -14.0081 -14.0081
   -13.9685 -13.9685 -13.9684 -13.9684 -13.9684 -13.9684 -13.9684 -13.9684
   -13.9684 -13.9683 -13.9683 -13.9683

          k = 0.5000 0.5000 0.2500 ( 59912 PWs)   bands (ev):

   -18.6024 -18.6024 -18.6024 -18.6024 -18.6023 -18.6023 -18.6023 -18.6023
   -14.0155 -14.0155 -14.0155 -14.0155 -14.0118 -14.0118 -14.0118 -14.0117
   -14.0117 -14.0117 -14.0117 -14.0117 -14.0079 -14.0079 -14.0079 -14.0079
   -13.9685 -13.9685 -13.9685 -13.9685 -13.9684 -13.9684 -13.9684 -13.9684
   -13.9684 -13.9684 -13.9683 -13.9683

          k = 0.5000 0.5000 0.2333 ( 59904 PWs)   bands (ev):

   -18.6024 -18.6024 -18.6024 -18.6024 -18.6023 -18.6023 -18.6023 -18.6023
   -14.0157 -14.0157 -14.0157 -14.0157 -14.0118 -14.0118 -14.0118 -14.0117
   -14.0117 -14.0117 -14.0117 -14.0117 -14.0077 -14.0077 -14.0077 -14.0077
   -13.9685 -13.9685 -13.9685 -13.9685 -13.9684 -13.9684 -13.9684 -13.9684
   -13.9684 -13.9683 -13.9683 -13.9683

          k = 0.5000 0.5000 0.2167 ( 59904 PWs)   bands (ev):

   -18.6024 -18.6024 -18.6024 -18.6024 -18.6023 -18.6023 -18.6023 -18.6023
   -14.0159 -14.0159 -14.0159 -14.0159 -14.0118 -14.0118 -14.0118 -14.0117
   -14.0117 -14.0117 -14.0117 -14.0117 -14.0075 -14.0075 -14.0075 -14.0075
   -13.9685 -13.9685 -13.9685 -13.9684 -13.9684 -13.9684 -13.9684 -13.9684
   -13.9683 -13.9683 -13.9683 -13.9683

          k = 0.5000 0.5000 0.2000 ( 59924 PWs)   bands (ev):

   -18.6025 -18.6025 -18.6025 -18.6025 -18.6023 -18.6023 -18.6023 -18.6023
   -14.0161 -14.0161 -14.0161 -14.0161 -14.0118 -14.0118 -14.0118 -14.0117
   -14.0117 -14.0117 -14.0117 -14.0117 -14.0074 -14.0074 -14.0074 -14.0073
   -13.9685 -13.9685 -13.9685 -13.9685 -13.9684 -13.9684 -13.9684 -13.9684
   -13.9684 -13.9683 -13.9683 -13.9683

          k = 0.5000 0.5000 0.1833 ( 59920 PWs)   bands (ev):

   -18.6025 -18.6025 -18.6025 -18.6025 -18.6023 -18.6023 -18.6023 -18.6023
   -14.0163 -14.0163 -14.0162 -14.0162 -14.0118 -14.0118 -14.0118 -14.0117
   -14.0117 -14.0117 -14.0117 -14.0117 -14.0072 -14.0072 -14.0072 -14.0072
   -13.9685 -13.9685 -13.9685 -13.9685 -13.9684 -13.9684 -13.9684 -13.9684
   -13.9684 -13.9683 -13.9683 -13.9683

          k = 0.5000 0.5000 0.1667 ( 59920 PWs)   bands (ev):

   -18.6025 -18.6025 -18.6025 -18.6025 -18.6023 -18.6023 -18.6023 -18.6023
   -14.0164 -14.0164 -14.0164 -14.0164 -14.0118 -14.0118 -14.0118 -14.0117
   -14.0117 -14.0117 -14.0117 -14.0117 -14.0071 -14.0071 -14.0070 -14.0070
   -13.9685 -13.9685 -13.9685 -13.9685 -13.9684 -13.9684 -13.9684 -13.9684
   -13.9684 -13.9684 -13.9683 -13.9683

          k = 0.5000 0.5000 0.1500 ( 59916 PWs)   bands (ev):

   -18.6025 -18.6025 -18.6025 -18.6025 -18.6023 -18.6023 -18.6023 -18.6023
   -14.0165 -14.0165 -14.0165 -14.0165 -14.0118 -14.0118 -14.0118 -14.0117
   -14.0117 -14.0117 -14.0117 -14.0117 -14.0069 -14.0069 -14.0069 -14.0069
   -13.9685 -13.9685 -13.9685 -13.9685 -13.9685 -13.9684 -13.9684 -13.9684
   -13.9684 -13.9683 -13.9683 -13.9683

          k = 0.5000 0.5000 0.1333 ( 59924 PWs)   bands (ev):

   -18.6025 -18.6025 -18.6025 -18.6025 -18.6023 -18.6023 -18.6023 -18.6023
   -14.0167 -14.0167 -14.0167 -14.0166 -14.0118 -14.0118 -14.0118 -14.0117
   -14.0117 -14.0117 -14.0117 -14.0117 -14.0068 -14.0068 -14.0068 -14.0068
   -13.9685 -13.9685 -13.9685 -13.9685 -13.9685 -13.9684 -13.9684 -13.9684
   -13.9684 -13.9683 -13.9683 -13.9683

          k = 0.5000 0.5000 0.1167 ( 59924 PWs)   bands (ev):

   -18.6025 -18.6025 -18.6025 -18.6025 -18.6023 -18.6023 -18.6023 -18.6023
   -14.0168 -14.0168 -14.0168 -14.0168 -14.0118 -14.0118 -14.0117 -14.0117
   -14.0117 -14.0117 -14.0117 -14.0117 -14.0067 -14.0067 -14.0067 -14.0067
   -13.9686 -13.9685 -13.9685 -13.9685 -13.9685 -13.9684 -13.9684 -13.9684
   -13.9684 -13.9683 -13.9683 -13.9683

          k = 0.5000 0.5000 0.1000 ( 59932 PWs)   bands (ev):

   -18.6025 -18.6025 -18.6025 -18.6025 -18.6023 -18.6023 -18.6023 -18.6023
   -14.0169 -14.0169 -14.0169 -14.0168 -14.0118 -14.0118 -14.0118 -14.0117
   -14.0117 -14.0117 -14.0117 -14.0117 -14.0066 -14.0066 -14.0066 -14.0066
   -13.9686 -13.9685 -13.9685 -13.9685 -13.9684 -13.9684 -13.9684 -13.9684
   -13.9684 -13.9683 -13.9683 -13.9682

          k = 0.5000 0.5000 0.0833 ( 59920 PWs)   bands (ev):

   -18.6025 -18.6025 -18.6025 -18.6025 -18.6023 -18.6023 -18.6023 -18.6023
   -14.0169 -14.0169 -14.0169 -14.0169 -14.0118 -14.0118 -14.0118 -14.0117
   -14.0117 -14.0117 -14.0117 -14.0117 -14.0065 -14.0065 -14.0065 -14.0065
   -13.9686 -13.9685 -13.9685 -13.9685 -13.9685 -13.9684 -13.9684 -13.9684
   -13.9684 -13.9683 -13.9683 -13.9682

          k = 0.5000 0.5000 0.0667 ( 59920 PWs)   bands (ev):

   -18.6025 -18.6025 -18.6025 -18.6025 -18.6023 -18.6023 -18.6023 -18.6023
   -14.0170 -14.0170 -14.0170 -14.0170 -14.0118 -14.0118 -14.0118 -14.0117
   -14.0117 -14.0117 -14.0117 -14.0117 -14.0065 -14.0065 -14.0065 -14.0064
   -13.9685 -13.9685 -13.9685 -13.9684 -13.9684 -13.9684 -13.9684 -13.9684
   -13.9684 -13.9683 -13.9683 -13.9683

          k = 0.5000 0.5000 0.0500 ( 59944 PWs)   bands (ev):

   -18.6025 -18.6025 -18.6025 -18.6025 -18.6023 -18.6023 -18.6023 -18.6023
   -14.0171 -14.0171 -14.0171 -14.0171 -14.0118 -14.0118 -14.0118 -14.0117
   -14.0117 -14.0117 -14.0117 -14.0117 -14.0064 -14.0064 -14.0064 -14.0064
   -13.9686 -13.9685 -13.9685 -13.9685 -13.9684 -13.9684 -13.9684 -13.9684
   -13.9684 -13.9683 -13.9683 -13.9683

          k = 0.5000 0.5000 0.0333 ( 59952 PWs)   bands (ev):

   -18.6025 -18.6025 -18.6025 -18.6025 -18.6023 -18.6023 -18.6023 -18.6023
   -14.0171 -14.0171 -14.0171 -14.0171 -14.0118 -14.0118 -14.0118 -14.0117
   -14.0117 -14.0117 -14.0117 -14.0117 -14.0064 -14.0064 -14.0064 -14.0064
   -13.9685 -13.9685 -13.9685 -13.9685 -13.9684 -13.9684 -13.9684 -13.9684
   -13.9684 -13.9683 -13.9683 -13.9683

          k = 0.5000 0.5000 0.0167 ( 59976 PWs)   bands (ev):

   -18.6025 -18.6025 -18.6025 -18.6025 -18.6023 -18.6023 -18.6023 -18.6023
   -14.0171 -14.0171 -14.0171 -14.0171 -14.0118 -14.0118 -14.0118 -14.0117
   -14.0117 -14.0117 -14.0117 -14.0117 -14.0063 -14.0063 -14.0063 -14.0063
   -13.9686 -13.9685 -13.9685 -13.9685 -13.9685 -13.9684 -13.9684 -13.9684
   -13.9684 -13.9683 -13.9683 -13.9683

          k = 0.5000 0.5000 0.0000 ( 59916 PWs)   bands (ev):

   -18.6025 -18.6025 -18.6025 -18.6025 -18.6023 -18.6023 -18.6023 -18.6023
   -14.0172 -14.0172 -14.0171 -14.0171 -14.0118 -14.0118 -14.0118 -14.0117
   -14.0117 -14.0117 -14.0117 -14.0117 -14.0063 -14.0063 -14.0063 -14.0063
   -13.9685 -13.9685 -13.9685 -13.9685 -13.9685 -13.9684 -13.9684 -13.9684
   -13.9684 -13.9684 -13.9683 -13.9683

     Writing output data file ../out/aiida.save/

     init_run     :      8.29s CPU      8.98s WALL (       1 calls)
     electrons    :  40179.53s CPU  40326.14s WALL (       1 calls)

     Called by init_run:
     wfcinit      :      0.00s CPU      0.00s WALL (       1 calls)
     wfcinit:atom :     11.66s CPU     17.16s WALL (     182 calls)
     wfcinit:wfcr :   8402.06s CPU   8427.59s WALL (     182 calls)
     potinit      :      1.90s CPU      1.97s WALL (       1 calls)
     hinit0       :      0.66s CPU      0.68s WALL (       1 calls)

     Called by electrons:
     c_bands      :  40179.53s CPU  40326.13s WALL (       1 calls)
     v_of_rho     :      0.47s CPU      0.53s WALL (       1 calls)
     v_h          :      0.04s CPU      0.04s WALL (       1 calls)
     v_xc         :      0.44s CPU      0.48s WALL (       1 calls)
     newd         :      5.05s CPU      5.62s WALL (       1 calls)
     PAW_pot      :      1.38s CPU      1.38s WALL (       1 calls)

     Called by c_bands:
     init_us_2    :     15.07s CPU     15.27s WALL (     182 calls)
     cegterg      :  31602.70s CPU  31715.08s WALL (     486 calls)

     Called by sum_band:

     Called by *egterg:
     cdiaghg      :     96.91s CPU     96.96s WALL (    7559 calls)
     cegterg:over :   2465.98s CPU   2466.94s WALL (    7377 calls)
     cegterg:upda :   2036.36s CPU   2045.96s WALL (    7377 calls)
     cegterg:last :   1147.02s CPU   1147.20s WALL (    1279 calls)
     h_psi        :  23941.18s CPU  24046.24s WALL (    8045 calls)
     s_psi        :   8467.74s CPU   8470.63s WALL (    8045 calls)
     g_psi        :     65.16s CPU     65.21s WALL (    7377 calls)

     Called by h_psi:
     h_psi:calbec :   8417.05s CPU   8420.18s WALL (    8045 calls)
     vloc_psi     :   7024.68s CPU   7111.59s WALL (    8045 calls)
     add_vuspsi   :   8468.56s CPU   8470.44s WALL (    8045 calls)

     General routines
     calbec       :   8417.02s CPU   8420.16s WALL (    8045 calls)
     fft          :      0.35s CPU      0.38s WALL (      12 calls)
     fftw         :   5699.82s CPU   5759.49s WALL (  472930 calls)
     davcio       :      0.46s CPU     16.38s WALL (     364 calls)

     Parallel routines
     fft_scatt_xy :   1341.97s CPU   1352.70s WALL (  472942 calls)
     fft_scatt_yz :    589.73s CPU    614.58s WALL (  472942 calls)

     PAW routines
     PAW_pot      :      1.38s CPU      1.38s WALL (       1 calls)

     PWSCF        :     11h 9m CPU     11h12m WALL


   This run was terminated on:   3:33:17  21Apr2024            

=------------------------------------------------------------------------------=
   JOB DONE.
=------------------------------------------------------------------------------=
