 --invoking executable--
/opt/cfour/2.1/bin/xjoda


   *************************************************************************
         <<<     CCCCCC     CCCCCC   |||     CCCCCC     CCCCCC   >>>
       <<<      CCC        CCC       |||    CCC        CCC         >>>
      <<<      CCC        CCC        |||   CCC        CCC            >>>
    <<<        CCC        CCC        |||   CCC        CCC              >>>
      <<<      CCC        CCC        |||   CCC        CCC            >>>
       <<<      CCC        CCC       |||    CCC        CCC         >>>
         <<<     CCCCCC     CCCCCC   |||     CCCCCC     CCCCCC   >>>
   *************************************************************************

     ****************************************************************
     * CFOUR Coupled-Cluster techniques for Computational Chemistry *
     ****************************************************************


   Department of Chemistry                Institut fuer Physikalische Chemie
   University of Florida                  Universitaet Mainz
   Gainesville, FL 32611, USA             D-55099 Mainz, Germany

   Department of Chemistry                Fakultaet fuer Chemie und Biowiss.
   Johns Hopkins University               Karlsruher Institut fuer Technologie
   Baltimore, MD 21218, USA               D-76131 Karlsruhe, Germany

   Department of Chemistry                Department of Physical Chemistry
   Southern Methodist University          Eotvos Lorand University
   Dallas, TX 75275, USA                  H-1053 Budapest, Hungary


                       Version 2.1

                     node013                                           
                     Tue 04 Mar 2025 03:01:44 PM PST                   
                     integer*8 version is running

********************************************************************************
*                          Input from ZMAT file                                *
********************************************************************************
Optimization on FeCO4 (C2v), S0                                                 
Fe                                                                              
C 1 rFeCAx*                                                                     
C 1 rFeCEq* 2 aCAxCEq*                                                          
C 1 rFeCEq* 2 aCAxCEq* 3 dC                                                     
C 1 rFeCEq* 2 aCAxCEq* 3 dnC                                                    
O 1 rFeOAx* 3 aCAxCEq* 2 d0                                                     
O 1 rFeOEq* 2 aCAxOEq* 3 d0                                                     
O 1 rFeOEq* 2 aCAxOEq* 4 d0                                                     
O 1 rFeOEq* 2 aCAxOEq* 5 d0                                                     
                                                                                
rFeCAx  =    1.78700                                                            
rFeCEq  =    1.84962                                                            
rFeOAx  =    2.93616                                                            
rFeOEq  =    2.99880                                                            
aCAxCEq =   92.43000                                                            
aCAxOEq =   91.88960                                                            
d0      =    0.00000                                                            
dnC     = -120.00000                                                            
dC      =  120.0000                                                             
                                                                                
*ACES2(CALC = CCSD(T)                                                           
      BASIS = SPECIAL                                                           
FROZEN_CORE = ON                                                                
   SCF_CONV = 10                                                                
    CC_CONV = 8                                                                 
 LINEQ_CONV = 8                                                                 
   SCF_MAXCYC = 500                                                             
    CC_MAXCYC = 500                                                             
 LINEQ_MAXCYC = 500                                                             
       MEMORY = 32                                                              
     MEM_UNIT = GB)                                                             
                                                                                
Fe:cc-pVDZ                                                                      
C:cc-pVDZ                                                                       
C:cc-pVDZ                                                                       
C:cc-pVDZ                                                                       
C:cc-pVDZ                                                                       
O:cc-pVDZ                                                                       
O:cc-pVDZ                                                                       
O:cc-pVDZ                                                                       
O:cc-pVDZ                                                                       
                                                                                
********************************************************************************
    -------------------------------------------------------------------
                    CFOUR Control Parameters 
    -------------------------------------------------------------------
        External           Internal           Value            Units
          Name               Name
    -------------------------------------------------------------------
       ABCDTYPE             IABCDT         STANDARD    [  0]    ***   
       ANHARMONIC           IANHAR         OFF         [  0]    ***   
       ANH_ALGORIT          IANALG         STANDARD    [  0]    ***   
       ANH_DERIVAT          IANDER         SECOND      [  1]    ***   
       ANH_MODE             ANHMOD         VIBRATION   [  0]    ***   
       ANH_STEPSIZ          ICUBST             50000          x 10-6  
       ANH_SYMMETR          IANHSM         ABELIAN     [  0]    ***   
       AO_LADDERS           IAOLAD         SINGLEPASS  [  1]    ***   
       AV_SCF               IAVSCF         OFF         [  0]    ***   
       BASIS                IBASIS         SPECIAL     [  0]    ***   
       BOTHVECTORS          BOTHVC         OFF         [  0]    ***   
       BOX_POTENT           IPIAB          OFF         [  0]    ***   
       BREIT                IBREIT         OFF         [  0]    ***   
       BRUCK_CONV           IBRTOL          10D-  4             ***   
       BRUECKNER            IBRKNR         OFF         [  0]    ***   
       BUFFERSIZE           IBUFFS              4096            ***   
       CACHE_RECS           ICHREC             10               ***   
       CALCLEVEL            ICLLVL         CCSD(T)     [ 22]    ***   
       CCORBOPT             ICCORB         OFF         [  0]  x 0.01  
       CC_CONV              ICCCNV          10D-  8             ***   
       CC_EXPORDER          ICCEOR              5               ***   
       CC_EXTRAPOL          ICCEXT         DIIS        [  1]    ***   
       CC_GUESS             ICCGES         MP2         [  0]    ***   
       CC_MAXCYC            ICCCYC            500              cycles 
       CC_PROGRAM           ICCPRO         VCC         [  0]    ***   
       CHARGE               ICHRGE              0               ***   
       CHOLESKY             ICHOLE         OFF         [  0]    ***   
       CIS_CONV             ICISTL              5               ***   
       COMM_SIZE            IPSIZE            ***               ***   
       CONSTANT             ICONST         OLD         [  1]    ***   
       CONTINUUM            ICONTU         NONE        [  0]    ***   
       CONTRACTION          ICNTYP         GENERAL     [  1]    ***   
       COORDINATES          ICOORD         INTERNAL    [  0]    ***   
       CPHF_CONVER          ICPHFT          10D- 16             ***   
       CPHF_MAXCYC          ICPHFC             64              cycles 
       CUBIC                ICUBIC         OFF         [  0]    ***   
       CURVILINEAR          ICURVY         OFF         [  0]    ***   
       DBOC                 IDBOC          OFF         [  0]    ***   
       DCT                  IDCT           OFF         [  0]    ***   
       DERIV_LEV            IDRLVL         FIRST       [  1]    ***   
       DEVMEM_SIZE          IDVMEM         *********           MByte  
       DIAG_MRCC            IEOMST          10D-  0             ***   
       DIFF_TYPE            IDIFTY         RELAXED     [  0]    ***   
       DIRECT               IDIRCT         OFF         [  0]    ***   
       DROPMO               IDRPMO      NONE         
       ECP                  IECP           OFF         [  0]    ***   
       EIGENVECTOR          IVEC                1               ***   
       EL_ANHARM            IELANH         OFF         [  0]    ***   
       EOMFOLLOW            IEOMSR         ENERGY      [  0]    ***   
       EOMIP                IEOMIP         OFF         [  0]    ***   
       EOMLEVEL             HBARFM         SAME        [  0]    ***   
       EOM_MRCC             IMRCCE         NEW         [  1]    ***   
       EOM_NONIT            EOMNON         OFF         [  0]    ***   
       EOM_NSING            IEOMSI          10D-  0             ***   
       EOM_NSTATES          IMRCCD         DAVIDSON    [  0]    ***   
       EOM_NTRIP            IEOMTR          10D-  0             ***   
       EOM_ORDER            IEXORD         ENERGY      [  0]    ***   
       EOM_PROPSTA          IEOMST              0               ***   
       ESTATE_CONV          IEXTOL          10D-  5             ***   
       ESTATE_DIAG          IEXDIG         ITERATIVE   [  0]    ***   
       ESTATE_LOCK          IESLOC         ON          [  1]    ***   
       ESTATE_MAXC          IEXMXC             40               ***   
       ESTATE_PROP          IEXPRP         OFF         [  0]    ***   
       EVAL_HESS            IRECAL              0            # of cyc.
       EXCITATION           IEXCIT              0               ***   
       EXCITE               IEXCIT         NONE        [  0]    ***   
       EXTERN_POT           IEXPOT         OFF         [  0]    ***   
       FCGRADNEW            IFCGNW         ON          [  1]    ***   
       FC_FIELD             IFINFC              0             x 10-6  
       FD_CALTYPE           IFDCAL         GRADONLY    [  0]    ***   
       FD_PROJECT           IFDPRJ         OFF         [  1]    ***   
       FD_STEPSIZE          IDISFD              0            10-4 bohr
       FD_USEGROUP          IFDGRP         FULL        [  0]    ***   
       FILE_RECSIZ          IFLREC              4096           words  
       FINITE_PERT          IFIPER              0             x 10-6  
       FIXGEOM              IFIXGM         OFF         [  0]    ***   
       FOCK                 IFOCK          AO          [  1]    ***   
       FREQ_ALGORI          IVIALG         STANDARD    [  0]    ***   
       FROZEN_CORE          IFROCO         ON          [  1]    ***   
       GAMMA_ABCD           IGABCD         STORE       [  0]    ***   
       GAMMA_ABCI           IGABCI         STORE       [  0]    ***   
       GENBAS_1             IGNBS1              0               ***   
       GENBAS_2             IGNBS2              0               ***   
       GENBAS_3             IGNBS3              0               ***   
       GENBAS_4             IGNBS4              0               ***   
       GEO_CONV             ICONTL              5              H/bohr 
       GEO_MAXCYC           IOPTCY             50               ***   
       GEO_MAXSTEP          IMXSTP            300            millibohr
       GEO_METHOD           INR            NR          [  0]    ***   
       GIAO                 IGIAO          OFF         [  1]    ***   
       GIMIC                IGIMIC         OFF         [  0]    ***   
       GRID                 IGRID          OFF         [  0]    ***   
       GRID_ALGO            IGALGO         SERIAL      [  0]    ***   
       GUESS                IGUESS         MOREAD      [  0]    ***   
       HBAR                 IHBAR          OFF         [  0]    ***   
       HESS_TYPE            IHESTP         SCF         [  0]    ***   
       HF2_FILE             IHF2Fl         USE         [  1]    ***   
       HFSTABILITY          ISTABL         OFF         [  0]    ***   
       INCORE               INCORE         OFF         [  0]    ***   
       INPUT_MRCC           IMRCC          ON          [  1]    ***   
       INTEGRALS            INTTYP         VMOL        [  1]    ***   
       JODA_PRINT           IJPRNT              0               ***   
       KEYWORD_OUT          IDMPKW         NO          [  0]    ***   
       LINDEP_TOL           ILINDP              8               ***   
       LINEQ_CONV           IZTACN          10D-  8           cycles  
       LINEQ_EXPOR          ILMAXD              5               ***   
       LINEQ_MAXCY          ILMAXC            500               ***   
       LINEQ_TYPE           ILTYPE         DIIS        [  1]    ***   
       LOCK_ORBOCC          ILOCOC         OFF         [  0]    ***   
       MEMORY_SIZE          IMEMSZ         *********           words  
       MEM_UNIT             IMEMU          GB          [  3]    ***   
       MRCC                 IMRCCC         OFF         [  0]    ***   
       MULTIPLICTY          IMULTP              1               ***   
       NACOUPLING           IVCOUP         OFF         [  0]    ***   
       NEGEVAL              IDIE           ABORT       [  0]    ***   
       NEWNORM              INEWNO         OFF         [  0]    ***   
       NON-HF               INONHF         OFF         [  0]    ***   
       NTOP_TAMP            ITOPT2             15               ***   
       NUC_MODEL            INUCMO         POINT       [  0]    ***   
       OCCUPATION           IOCCU   ESTIMATED BY SCF 
       OPEN-SHELL           IOPEN          SPIN-ORBITAL[  0]    ***   
       OPTVIB               IOPTVB         OFF         [  0]    ***   
       ORBITALS             IORBTP         STANDARD    [  0]    ***   
       PARALLEL             IPARAL         ON          [  1]    ***   
       PARA_INT             IPINTS         ON          [  1]    ***   
       PARA_PRINT           IPPRIN              0               ***   
       PERT_ORB             IPTORB         CANONICAL   [  1]    ***   
       POINTS               IGRDFD              0               ***   
       PRINT                IPRNT               0               ***   
       PROPS                IPROPS         OFF         [  0]    ***   
       PROP_INTEGR          IINTYP         INTERNAL    [  0]    ***   
       PSI                  IPSI           OFF         [  0]    ***   
       QC_ALG               IQCALG         FLM         [  0]    ***   
       QC_LINALG            IQCLIN         TRIDIAG     [  2]    ***   
       QC_MAXCYC            IQCMAX          10D-100           cycles  
       QC_MAXSCFCY          IQCMSC          10D- 15           cycles  
       QC_RTRUST            IQCRTR          10D-  0           x 10-3  
       QC_SKIPSCF           IQCSKI         OFF         [  0]    ***   
       QC_START             IQCSTA          10D-  1             ***   
       QRHFGUESS            IQGUES         OFF         [  0]    ***   
       QUARTIC              IQUART         OFF         [  0]    ***   
       RAMAN_INT            IRAMIN         OFF         [  0]    ***   
       RAMAN_ORB            IRAMRE         UNRELAXED   [  0]    ***   
       RDO                  IRDOFM         ON          [  1]    ***   
       REDUCE_REPR          REDREP         Ir          [  0]    ***   
       REFERENCE            IREFNC         RHF         [  0]    ***   
       RELATIVIST           IRELAT         OFF         [  0]    ***   
       RELAX_DENS           IRDENS         ON          [  1]    ***   
       RESET_FLAGS          IRESET         OFF         [  0]    ***   
       RESTART_CC           ICCRES         OFF         [  0]    ***   
       ROT_EVEC             ROTVEC              0               ***   
       SAVE_INTS            ISVINT         OFF         [  0]    ***   
       SCALE_ON             ISTCRT              0               ***   
       SCF_CONV             ISCFCV          10D- 10             ***   
       SCF_DAMPING          IDAMP               0             x 10-3  
       SCF_EXPORDE          IRPPOR              6               ***   
       SCF_EXPSTAR          IRPPLS              8               ***   
       SCF_EXTRAPO          IRPP           ON          [  1]    ***   
       SCF_MAXCYC           ISCFCY            500              cycles 
       SCF_NOSTOP           ISCFST         OFF         [  0]    ***   
       SCF_PRINT            ISCFPR              0               ***   
       SCF_PROG             ISCFPR         SCF         [  0]    ***   
       SD_FIELD             IFINSD              0             x 10-6  
       SOPERT               IPERSO         OFF         [  0]    ***   
       SPHERICAL            IDFGHI         ON          [  1]    ***   
       SPINORBIT            ISOCAL         OFF         [  0]    ***   
       SPINROTATIO          ISRCON         OFF         [  0]    ***   
       SPIN_FLIP            ISPFLP         OFF         [  0]    ***   
       SPIN_ORBIT           ISPORB         OFF         [  0]    ***   
       SPIN_SCAL            ISCSMP         OFF         [  0]    ***   
       STEEPSCALE           ISTPSC              1000          x 10-3  
       SUBGROUP             ISUBGP         DEFAULT     [  0]    ***   
       SUBGRPAXIS           ISBXYZ         X           [  0]    ***   
       SYMMETRY             ISYM           ON          [  0]    ***   
       SYM_CHECK            ISYMCK         OVERRIDE    [  1]    ***   
       T3_EXTRAPOL          IT3EXT         OFF         [  0]    ***   
       T4_EXTRAPOL          IT4EXP         OFF         [  0]    ***   
       TAMP_SUM             IEVERY              5               ***   
       TESTSUITE            ITESTS         OFF         [  0]    ***   
       THERMOCH             ITHERM         OFF         [  0]    ***   
       TOL_CHOLESK          ITOLCH          10D-  4             ***   
       TRANGRAD             IRESRM         OFF         [  0]    ***   
       TRANS_INV            ITRAIN         USE         [  0]    ***   
       TREAT_PERT           ITREAT         SIMULTANEOUS[  0]    ***   
       TRIP_ALGORI          ITRALG         NORMAL      [  0]    ***   
       UIJ_THRESHO          IUIJTH              1               ***   
       UNITS                IUNITS         ANGSTROM    [  0]    ***   
       UNOS                 IUNOS          OFF         [  0]    ***   
       UPDATE_HESS          IHUPDT         ON          [  1]    ***   
       VIBPHASE             ISETPH         STANDARD    [  0]    ***   
       VIBRATION            IVIB           NO          [  0]    ***   
       VIB_ALGORIT          IGEALG         STANDARD    [  0]    ***   
       VNATORB              IVNORB         OFF         [  0]    ***   
       VTRAN                IVTRAN         FULL/PARTIAL[  0]    ***   
       XFIELD               IXEFLD              0             x 10-6  
       XFORM_TOL            IXFTOL          10D- 11             ***   
       YFIELD               IYEFLD              0             x 10-6  
       ZFIELD               IZEFLD              0             x 10-6  
       ZSCALE_EXP           IZEXPS         OFF         [  0]    ***   
    -------------------------------------------------------------------
   9 entries found in Z-matrix 
   Job Title : Optimization on FeCO4 (C2v), S0                                                 
   There are  9 unique internal coordinates.
   Of these,  6 will be optimized.
   User supplied Z-matrix: 
--------------------------------------------------------------------------------
       SYMBOL    BOND      LENGTH    ANGLE     ANGLE     DIHED     ANGLE
                  TO      (ANGST)    WRT      (DEG)      WRT      (DEG)
--------------------------------------------------------------------------------
        Fe   
        C          1         rFeCA
        C          1         rFeCE      2        aCAxC
        C          1         rFeCE      2        aCAxC      3        dC   
        C          1         rFeCE      2        aCAxC      3        dnC  
        O          1         rFeOA      3        aCAxC      2        d0   
        O          1         rFeOE      2        aCAxO      3        d0   
        O          1         rFeOE      2        aCAxO      4        d0   
        O          1         rFeOE      2        aCAxO      5        d0   
                  *Initial values for internal coordinates* 
                      Name             Value
                        rFeCA           1.7870000000
                        rFeCE           1.8496200000
                        aCAxC          92.4300000000
                        dC            120.0000000000
                        dnC          -120.0000000000
                        rFeOA           2.9361600000
                        d0              0.0000000000
                        rFeOE           2.9988000000
                        aCAxO          91.8896000000
--------------------------------------------------------------------------------
  filter applied 
  filter applied 
  filter applied 
  filter applied 
   Rotational constants (in cm-1): 
          0.0304297017             0.0390355725             0.0390355725
   Rotational constants (in MHz): 
        912.2596355569          1170.2571863303          1170.2571863303
********************************************************************************
   The full molecular point group is C3v .
   The largest Abelian subgroup of the full molecular point group is C s .
   The computational point group is C s .
********************************************************************************
--------------------------------------------------------------------------------
   Analysis of internal coordinates specified by Z-matrix 
--------------------------------------------------------------------------------
   *The nuclear repulsion energy is  578.158117308390274 a.u.
  *ERROR* Parameters 11 and  5 are not equivalent [both called aCAxC].
  *ERROR* Parameters 11 and  3 are not equivalent [both called aCAxC].
  *ERROR* Parameters 11 and  8 are not equivalent [both called aCAxC].
  *WARNING* Parameter aCAxC[ 11] cannot have a nonzero derivative,
    but is being optimized.  Reconstruction of Z-matrix recommended.
   *There are   6 degrees of freedom within the tot. symm. molecular subspace.
   *Z-matrix requests optimization of   6 coordinates.
   *The following   6 parameters can have non-zero 
    derivatives within the totally symmetric subspace:
             rFeCE[ 7]  rFeCA[ 1]  aCAxO[17]  aCAxC[ 8]  rFeOE[16]  rFeOA[10]
   *The following   6 parameters are to be optimized:
             rFeCA[ 1]  rFeCE[ 2]  aCAxC[ 3]  rFeOA[10]  rFeOE[13]  aCAxO[14]

--------------------------------------------------------------------------------


 ----------------------------------------------------------------
         Coordinates used in calculation (QCOMP) 
 ----------------------------------------------------------------
 Z-matrix   Atomic            Coordinates (in bohr)
  Symbol    Number           X              Y              Z
 ----------------------------------------------------------------
     FE       26        -0.68469492    -0.00000000     0.00000000
     C         6         2.69224637    -0.00000000     0.00000000
     C         6        -0.83289038     1.74606645    -3.02427580
     C         6        -0.83289038    -3.49213290    -0.00000000
     C         6        -0.83289038     1.74606645     3.02427580
     O         8         4.86384450    -0.00000000     0.00000000
     O         8        -0.87155433     2.83191516    -4.90502094
     O         8        -0.87155433    -5.66383032    -0.00000000
     O         8        -0.87155433     2.83191516     4.90502094
 ----------------------------------------------------------------

   Interatomic distance matrix (Angstroms) 

                 FE            C             C             C             C    
                [ 1]        [ 2]        [ 3]        [ 4]        [ 5]
  FE   [ 1]     0.00000
  C    [ 2]     1.78700     0.00000
  C    [ 3]     1.84962     2.62578     0.00000
  C    [ 4]     1.84962     2.62578     3.20076     0.00000
  C    [ 5]     1.84962     2.62578     3.20076     3.20076     0.00000
  O    [ 6]     2.93616     1.14916     3.53591     3.53591     3.53591
  O    [ 7]     2.99880     3.54113     1.14939     4.23521     4.23521
  O    [ 8]     2.99880     3.54113     4.23521     1.14939     4.23521
  O    [ 9]     2.99880     3.54113     4.23521     4.23521     1.14939

                 O             O             O             O    
                [ 6]        [ 7]        [ 8]        [ 9]
  O    [ 6]     0.00000
  O    [ 7]     4.26550     0.00000
  O    [ 8]     4.26550     5.19125     0.00000
  O    [ 9]     4.26550     5.19125     5.19125     0.00000
 rotcon2
   Rotational constants (in cm-1): 
          0.0304297017             0.0390355725             0.0390355725
   Rotational constants (in MHz): 
        912.2596355569          1170.2571863303          1170.2571863303
  ECPDATA file not present.   Using default ECPDATA. 
  There are  17 frozen-core orbitals.
  There are  155 basis functions.
 @CHECKOUT-I, Total execution time (CPU/WALL):        1.40/       0.51 seconds.
--executable xjoda finished with status     0 in        0.54 seconds (walltime).
 --invoking executable--
/opt/cfour/2.1/bin/xvmol
 SERIAL VERSION OF MOLECULE STARTED
********************************************************************************
                    INPUT FROM MOL FILE
********************************************************************************
INTGRL        1    0    1    0    0    0    0    0    0                         
         *** CFOUR Program System (Release V0.1) ***                            
Optimization on FeCO4 (C2v), S0                                                 
    7    1 Z          0.10E-08              0    0                              
   9999.00      3.00                                                            
         26.00000000    1    4    1    1    1    1                              
FE#1  -0.684694920381894  -0.000000000000000   0.000000000000000                
   20    6                                                                      
   4316265.0000000000        8.0488029999999998E-006  -4.1559539999999997E-006  
   646342.40000000002        6.2583059999999998E-005  -3.2314010000000003E-005  
   147089.70000000001        3.2902389999999999E-004  -1.6995250000000000E-004  
   41661.519999999997        1.3873550000000001E-003  -7.1713690000000004E-004  
   13590.770000000000        5.0232560000000002E-003  -2.6036250000000000E-003  
   4905.7500000000000        1.6101399999999998E-002  -8.3991090000000001E-003  
   1912.7460000000001        4.5900339999999998E-002  -2.4341089999999999E-002  
   792.60429999999997       0.11361540000000001       -6.2519480000000002E-002  
   344.80650000000003       0.22838690000000000      -0.13659289999999999       
   155.89990000000000       0.32211590000000001      -0.23127070000000000       
   72.230909999999994       0.23836610000000000      -0.23837340000000001       
   32.725059999999999        7.4046669999999995E-002   3.1238370000000001E-002  
   15.667619999999999        9.2141970000000004E-002  0.50868179999999996      -
   7.5034830000000001        9.3397900000000006E-002  0.49876949999999998      -
   3.3122229999999999        1.5739650000000001E-002   9.0335520000000002E-002  
   1.5584709999999999       -4.1866819999999998E-004  -6.0053370000000003E-003  
  0.68391400000000002        5.3763179999999999E-005   2.3124539999999999E-004  
  0.14675700000000000       -3.8166539999999997E-005  -5.6436799999999999E-004  
   7.0583000000000007E-002   4.3196030000000000E-005   4.9922599999999997E-004  
   3.1448999999999998E-002  -3.4010190000000000E-006  -1.0152930000000000E-004  
   16    5                                                                      
   17745.689999999999        4.1000000000000000E-005  -1.5000000000000000E-005  
   4200.7209999999995        3.6900000000000002E-004  -1.2999999999999999E-004  
   1364.4290000000001        2.1289999999999998E-003  -7.5100000000000004E-004  
   522.08060000000000        9.3690000000000006E-003  -3.3289999999999999E-003  
   221.45949999999999        3.3097000000000001E-002  -1.1912000000000001E-002  
   100.90960000000000        9.4431000000000001E-002  -3.4932999999999999E-002  
   48.401150000000001       0.20807700000000001       -7.9989000000000005E-002  
   23.985360000000000       0.33233299999999999      -0.13463600000000001       
   12.182499999999999       0.33298699999999998      -0.13859800000000000       
   6.2422979999999999       0.15684300000000001        3.0277999999999999E-002  
   3.1109439999999999        2.1548999999999999E-002  0.33321600000000001      -
   1.5099579999999999       -2.0950000000000001E-003  0.45615299999999998      -
  0.71084499999999995       -1.7390000000000001E-003  0.28505100000000000      -
  0.27318999999999999       -2.9999999999999997E-004   4.6143999999999998E-002  
  0.10423300000000001        2.9000000000000000E-005  -3.2490000000000002E-003  
   3.8290999999999999E-002  -1.1000000000000000E-005   1.3569999999999999E-003  
    8    3                                                                      
   113.34399999999999        3.5300000000000002E-003  -3.8899999999999998E-003  
   33.641399999999997        2.5784000000000001E-002  -2.8441999999999999E-002  
   12.331000000000000        9.9118999999999999E-002 -0.11242900000000000       
   4.9947800000000004       0.23907300000000001      -0.27425699999999997       
   2.0728000000000000       0.35719899999999999      -0.31554599999999999       
  0.83075299999999996       0.36218800000000001        5.7109000000000000E-002  
  0.30917800000000001       0.23646100000000000       0.56360399999999999       
  0.10013000000000000        6.0117999999999998E-002  0.38463700000000001       
    2    1                                                                      
   3.2242999999999999       0.42224899999999999                                 
  0.77580000000000005       0.77146800000000004                                 
          6.00000000    1    3    1    1    1                                   
C #2   2.692246372051207  -0.000000000000000   0.000000000000000                
    9    3                                                                      
   6665.0000000000000        6.9200000000000002E-004  -1.4600000000000000E-004  
   1000.0000000000000        5.3290000000000004E-003  -1.1540000000000001E-003  
   228.00000000000000        2.7077000000000000E-002  -5.7250000000000001E-003  
   64.709999999999994       0.10171800000000000       -2.3311999999999999E-002  
   21.059999999999999       0.27473999999999998       -6.3954999999999998E-002  
   7.4950000000000001       0.44856400000000002      -0.14998100000000000       
   2.7970000000000002       0.28507399999999999      -0.12726199999999999       
  0.52149999999999996        1.5204000000000001E-002  0.54452900000000004       
  0.15959999999999999       -3.1909999999999998E-003  0.58049600000000001       
    4    2                                                                      
   9.4390000000000001        3.8108999999999997E-002   0.0000000000000000       
   2.0019999999999998       0.20948000000000000        0.0000000000000000       
  0.54559999999999997       0.50855700000000004        0.0000000000000000       
  0.15170000000000000       0.46884199999999998        1.0000000000000000       
    1    1                                                                      
  0.55000000000000004        1.0000000000000000                                 
          6.00000000    1    3    1    1    1                                   
C #3  -0.832890383212008   1.746066450008707  -3.024275804806503                
    9    3                                                                      
   6665.0000000000000        6.9200000000000002E-004  -1.4600000000000000E-004  
   1000.0000000000000        5.3290000000000004E-003  -1.1540000000000001E-003  
   228.00000000000000        2.7077000000000000E-002  -5.7250000000000001E-003  
   64.709999999999994       0.10171800000000000       -2.3311999999999999E-002  
   21.059999999999999       0.27473999999999998       -6.3954999999999998E-002  
   7.4950000000000001       0.44856400000000002      -0.14998100000000000       
   2.7970000000000002       0.28507399999999999      -0.12726199999999999       
  0.52149999999999996        1.5204000000000001E-002  0.54452900000000004       
  0.15959999999999999       -3.1909999999999998E-003  0.58049600000000001       
    4    2                                                                      
   9.4390000000000001        3.8108999999999997E-002   0.0000000000000000       
   2.0019999999999998       0.20948000000000000        0.0000000000000000       
  0.54559999999999997       0.50855700000000004        0.0000000000000000       
  0.15170000000000000       0.46884199999999998        1.0000000000000000       
    1    1                                                                      
  0.55000000000000004        1.0000000000000000                                 
          6.00000000    1    3    1    1    1                                   
C #4  -0.832890383212008  -3.492132900017413  -0.000000000000001                
    9    3                                                                      
   6665.0000000000000        6.9200000000000002E-004  -1.4600000000000000E-004  
   1000.0000000000000        5.3290000000000004E-003  -1.1540000000000001E-003  
   228.00000000000000        2.7077000000000000E-002  -5.7250000000000001E-003  
   64.709999999999994       0.10171800000000000       -2.3311999999999999E-002  
   21.059999999999999       0.27473999999999998       -6.3954999999999998E-002  
   7.4950000000000001       0.44856400000000002      -0.14998100000000000       
   2.7970000000000002       0.28507399999999999      -0.12726199999999999       
  0.52149999999999996        1.5204000000000001E-002  0.54452900000000004       
  0.15959999999999999       -3.1909999999999998E-003  0.58049600000000001       
    4    2                                                                      
   9.4390000000000001        3.8108999999999997E-002   0.0000000000000000       
   2.0019999999999998       0.20948000000000000        0.0000000000000000       
  0.54559999999999997       0.50855700000000004        0.0000000000000000       
  0.15170000000000000       0.46884199999999998        1.0000000000000000       
    1    1                                                                      
  0.55000000000000004        1.0000000000000000                                 
          8.00000000    1    3    1    1    1                                   
O #5   4.863844500541649  -0.000000000000000   0.000000000000000                
    9    3                                                                      
   11720.000000000000        7.1000000000000002E-004  -1.6000000000000001E-004  
   1759.0000000000000        5.4700000000000000E-003  -1.2630000000000000E-003  
   400.80000000000001        2.7837000000000001E-002  -6.2670000000000000E-003  
   113.70000000000000       0.10480000000000000       -2.5715999999999999E-002  
   37.030000000000001       0.28306199999999998       -7.0924000000000001E-002  
   13.270000000000000       0.44871899999999998      -0.16541100000000000       
   5.0250000000000004       0.27095200000000003      -0.11695500000000000       
   1.0129999999999999        1.5458000000000000E-002  0.55736799999999997       
  0.30230000000000001       -2.5850000000000001E-003  0.57275900000000002       
    4    2                                                                      
   17.699999999999999        4.3018000000000001E-002   0.0000000000000000       
   3.8540000000000001       0.22891300000000001        0.0000000000000000       
   1.0460000000000000       0.50872799999999996        0.0000000000000000       
  0.27529999999999999       0.46053100000000002        1.0000000000000000       
    1    1                                                                      
   1.1850000000000001        1.0000000000000000                                 
          8.00000000    1    3    1    1    1                                   
O #6  -0.871554332227598   2.831915161655066  -4.905020942711205                
    9    3                                                                      
   11720.000000000000        7.1000000000000002E-004  -1.6000000000000001E-004  
   1759.0000000000000        5.4700000000000000E-003  -1.2630000000000000E-003  
   400.80000000000001        2.7837000000000001E-002  -6.2670000000000000E-003  
   113.70000000000000       0.10480000000000000       -2.5715999999999999E-002  
   37.030000000000001       0.28306199999999998       -7.0924000000000001E-002  
   13.270000000000000       0.44871899999999998      -0.16541100000000000       
   5.0250000000000004       0.27095200000000003      -0.11695500000000000       
   1.0129999999999999        1.5458000000000000E-002  0.55736799999999997       
  0.30230000000000001       -2.5850000000000001E-003  0.57275900000000002       
    4    2                                                                      
   17.699999999999999        4.3018000000000001E-002   0.0000000000000000       
   3.8540000000000001       0.22891300000000001        0.0000000000000000       
   1.0460000000000000       0.50872799999999996        0.0000000000000000       
  0.27529999999999999       0.46053100000000002        1.0000000000000000       

Running with 32 threads/proc

    1    1                                                                      
   1.1850000000000001        1.0000000000000000                                 
          8.00000000    1    3    1    1    1                                   
O #7  -0.871554332227598  -5.663830323310132  -0.000000000000001                
    9    3                                                                      
   11720.000000000000        7.1000000000000002E-004  -1.6000000000000001E-004  
   1759.0000000000000        5.4700000000000000E-003  -1.2630000000000000E-003  
   400.80000000000001        2.7837000000000001E-002  -6.2670000000000000E-003  
   113.70000000000000       0.10480000000000000       -2.5715999999999999E-002  
   37.030000000000001       0.28306199999999998       -7.0924000000000001E-002  
   13.270000000000000       0.44871899999999998      -0.16541100000000000       
   5.0250000000000004       0.27095200000000003      -0.11695500000000000       
   1.0129999999999999        1.5458000000000000E-002  0.55736799999999997       
  0.30230000000000001       -2.5850000000000001E-003  0.57275900000000002       
    4    2                                                                      
   17.699999999999999        4.3018000000000001E-002   0.0000000000000000       
   3.8540000000000001       0.22891300000000001        0.0000000000000000       
   1.0460000000000000       0.50872799999999996        0.0000000000000000       
  0.27529999999999999       0.46053100000000002        1.0000000000000000       
    1    1                                                                      
   1.1850000000000001        1.0000000000000000                                 
FINISH                                                                          

********************************************************************************
 ONE- AND TWO-ELECTRON INTEGRALS OVER SYMMETRY-ADAPTED AOS ARE CALCULATED.

  SPHERICAL HARMONICS ARE USED.
  
  INTEGRALS LESS THAN  0.10E-13 ARE NEGLECTED.

  NUCLEAR REPULSION ENERGY :  578.1581173084 A.U.
  @MOLECU-I, ONE ELECTRON INTEGRALS (CPU/WALL):        0.81/       0.08 SECONDS.
  @TWOEL-I,   11927991 INTEGRALS OF SYMMETRY TYPE  I I I I
  @TWOEL-I,   14798817 INTEGRALS OF SYMMETRY TYPE  I J I J
  @TWOEL-I,    7653293 INTEGRALS OF SYMMETRY TYPE  I I J J
  @TWOEL-I, TOTAL NUMBER OF 2-E INTEGRALS   34380101.
  @MOLECU-I, TWO ELECTRON INTEGRALS (CPU/WALL):       49.21/      17.75 SECONDS.
 @CHECKOUT-I, Total execution time (CPU/WALL):       50.09/      17.84 seconds.
--executable xvmol finished with status     0 in       17.86 seconds (walltime).
 --invoking executable--
/opt/cfour/2.1/bin/xvmol2ja
 @GETMEM-I,  Allocated   30517 MB of main memory.
 @CHECKOUT-I, Total execution time (CPU/WALL):        0.31/       0.02 seconds.
--executable xvmol2ja finished with status     0 in        0.04 seconds (walltime).
 --invoking executable--
/opt/cfour/2.1/bin/xvscf
  There are  155 functions in the AO basis.

  There are 2 irreducible representations.

       Irrep        # of functions
         1                 97
         2                 58


  Parameters for SCF calculation: 
        SCF reference function:  RHF  
  Maximum number of iterations:  500
     Full symmetry point group: C3v 
     Computational point group: C s 
        Initial density matrix: MOREAD                 
     SCF convergence tolerance: 10**(-10)
  DIIS convergence acceleration:  ON
          Latest start for DIIS:   8
                     DIIS order:   6

  Memory information:    1051790 words required.
  Fock matrices are constructed from AO integral file.
 @GETMEM-I,  Allocated       8 MB of main memory.
  Initialization and symmetry analysis required      0.005 seconds.

  @INITGES-I, Occupancies from core Hamiltonian:

          Alpha population by irrep:  29   12
           Beta population by irrep:  29   12


 total no. of electrons in initial guess :   0.0000000000000000     
  --------------------------------------------------------------------
  Iteration         Total Energy            Largest Density Difference
  --------------------------------------------------------------------
       0           578.158117308390615              0.0000000000D+00
   current occupation vector 
    29 12
    29 12
       1         -1330.468502770957457              0.6632496353D+03
   current occupation vector 
    29 12
    29 12
       2         -1503.994363337448704              0.6481726709D+03
   current occupation vector 
    28 13
    28 13
       3         -1338.379145668701767              0.5060113585D+03
   current occupation vector 
    28 13
    28 13
       4         -1491.652450567242340              0.5068109533D+03
   current occupation vector 
    29 12
    29 12
       5         -1338.187701876376195              0.5129300594D+03
   current occupation vector 
    28 13
    28 13
       6         -1491.834607490367489              0.5132677993D+03
   current occupation vector 
    29 12
    29 12
       7         -1338.185501044304601              0.5126841581D+03
   current occupation vector 
    28 13
    28 13
       8         -1491.849230538708525              0.5126914469D+03
   current occupation vector 
    29 12
    29 12
       9         -1570.050137721878855              0.1931721249D+03
   current occupation vector 
    28 13
    28 13
      10         -1606.868684304848102              0.1706091388D+03
   current occupation vector 
    29 12
    29 12
      11         -1704.598223037763546              0.5164132243D+02
   current occupation vector 
    28 13
    28 13
      12         -1695.540700378549445              0.4902532778D+01
   current occupation vector 
    28 13
    28 13
      13         -1709.717020706799758              0.6925696301D+01
   current occupation vector 
    28 13
    28 13
      14         -1706.071980267040090              0.3916255269D+01
   current occupation vector 
    28 13
    28 13
      15         -1710.582881072406963              0.3974894229D+01
   current occupation vector 
    28 13
    28 13
      16         -1712.251149186033217              0.6199549941D+00
   current occupation vector 
    28 13
    28 13
      17         -1713.157552355517055              0.1207592889D+01
   current occupation vector 
    28 13
    28 13
      18         -1713.218389348755863              0.4381069897D+00
   current occupation vector 
    28 13
    28 13
      19         -1713.228199382945604              0.1151054759D+00
   current occupation vector 
    28 13
    28 13
      20         -1713.229901252710533              0.2610478537D-01
   current occupation vector 
    28 13
    28 13
      21         -1713.231361984957402              0.8653252975D-01
   current occupation vector 
    28 13
    28 13
      22         -1713.232185263722840              0.6014724997D-01
   current occupation vector 
    28 13
    28 13
      23         -1713.232948542713984              0.7768519723D-01
   current occupation vector 
    28 13
    28 13
      24         -1713.233282291136675              0.3148223392D-01
   current occupation vector 
    28 13
    28 13
      25         -1713.233441495144689              0.2036456990D-01
   current occupation vector 
    28 13
    28 13
      26         -1713.233619568078666              0.2991420233D-01
   current occupation vector 
    28 13
    28 13
      27         -1713.233776812794076              0.3727935327D-01
   current occupation vector 
    28 13
    28 13
      28         -1713.233858443811187              0.3697350963D-01
   current occupation vector 
    28 13
    28 13
      29         -1713.233869401546144              0.1144225304D-01
   current occupation vector 
    28 13
    28 13
      30         -1713.233872474895179              0.3968108871D-02
   current occupation vector 
    28 13
    28 13
      31         -1713.233874414057027              0.2670087264D-02
   current occupation vector 
    28 13
    28 13
      32         -1713.233875908597838              0.2651383645D-02
   current occupation vector 
    28 13
    28 13
      33         -1713.233876958194742              0.2436446658D-02
   current occupation vector 
    28 13
    28 13
      34         -1713.233878421977806              0.4743468252D-02
   current occupation vector 
    28 13
    28 13
      35         -1713.233879641366457              0.5238944934D-02
   current occupation vector 
    28 13
    28 13
      36         -1713.233880506087189              0.5379205834D-02
   current occupation vector 
    28 13
    28 13
      37         -1713.233881107429625              0.5740087662D-02
   current occupation vector 
    28 13
    28 13
      38         -1713.233881349012790              0.3426972895D-02
   current occupation vector 
    28 13
    28 13
      39         -1713.233881480508444              0.2619776704D-02
   current occupation vector 
    28 13
    28 13
      40         -1713.233881483845380              0.7175997660D-04
   current occupation vector 
    28 13
    28 13
      41         -1713.233881560540794              0.2145145054D-02
   current occupation vector 
    28 13
    28 13
      42         -1713.233881600692257              0.1378796605D-02
   current occupation vector 
    28 13
    28 13
      43         -1713.233881625792492              0.1271744049D-02
   current occupation vector 
    28 13
    28 13
      44         -1713.233881634949739              0.7046704321D-03
   current occupation vector 
    28 13
    28 13
      45         -1713.233881639675928              0.4711673217D-03
   current occupation vector 
    28 13
    28 13
      46         -1713.233881645724068              0.5968946838D-03
   current occupation vector 
    28 13
    28 13
      47         -1713.233881650118747              0.3331132184D-03
   current occupation vector 
    28 13
    28 13
      48         -1713.233881651046886              0.2480367982D-03
   current occupation vector 
    28 13
    28 13
      49         -1713.233881653620301              0.3254391622D-03
   current occupation vector 
    28 13
    28 13
      50         -1713.233881654543438              0.2431837605D-03
   current occupation vector 
    28 13
    28 13
      51         -1713.233881654771267              0.1005216571D-03
   current occupation vector 
    28 13
    28 13
      52         -1713.233881654840388              0.6856326379D-04
   current occupation vector 
    28 13
    28 13
      53         -1713.233881654864945              0.3139815321D-04
   current occupation vector 
    28 13
    28 13
      54         -1713.233881654898141              0.3688125596D-04
   current occupation vector 
    28 13
    28 13
      55         -1713.233881654870402              0.7235645561D-05
   current occupation vector 
    28 13
    28 13
      56         -1713.233881654914057              0.2845493284D-04
   current occupation vector 
    28 13
    28 13
      57         -1713.233881654903143              0.1321023299D-04
   current occupation vector 
    28 13
    28 13
      58         -1713.233881654916331              0.1459712786D-04
   current occupation vector 
    28 13
    28 13
      59         -1713.233881654908600              0.1026596363D-04
   current occupation vector 
    28 13
    28 13
      60         -1713.233881654921333              0.1586063561D-04
   current occupation vector 
    28 13
    28 13
      61         -1713.233881654934066              0.2752685831D-04
   current occupation vector 
    28 13
    28 13
      62         -1713.233881654934066              0.1737727832D-04
   current occupation vector 
    28 13
    28 13
      63         -1713.233881654943616              0.5390861627D-05
   current occupation vector 
    28 13
    28 13
      64         -1713.233881654943616              0.7657796840D-05
   current occupation vector 
    28 13
    28 13
      65         -1713.233881654945890              0.2938129498D-05
   current occupation vector 
    28 13
    28 13
      66         -1713.233881654929974              0.8345353488D-06
   current occupation vector 
    28 13
    28 13
      67         -1713.233881654939978              0.5627861719D-06
   current occupation vector 
    28 13
    28 13
      68         -1713.233881654950892              0.3179173787D-06
   current occupation vector 
    28 13
    28 13
      69         -1713.233881654928609              0.1264910954D-05
   current occupation vector 
    28 13
    28 13
      70         -1713.233881654939978              0.2510838421D-06
   current occupation vector 
    28 13
    28 13
      71         -1713.233881654934066              0.9165218762D-06
   current occupation vector 
    28 13
    28 13
      72         -1713.233881654947709              0.5292716039D-06
   current occupation vector 
    28 13
    28 13
      73         -1713.233881654933612              0.3632133581D-06
   current occupation vector 
    28 13
    28 13
      74         -1713.233881654949528              0.3049279367D-06
   current occupation vector 
    28 13
    28 13
      75         -1713.233881654937250              0.3377994013D-06
   current occupation vector 
    28 13
    28 13
      76         -1713.233881654948618              0.2820541769D-06
   current occupation vector 
    28 13
    28 13
      77         -1713.233881654934521              0.6310538003D-07
   current occupation vector 
    28 13
    28 13
      78         -1713.233881654933157              0.9313451921D-07
   current occupation vector 
    28 13
    28 13
      79         -1713.233881654926336              0.4281164889D-07
   current occupation vector 
    28 13
    28 13
      80         -1713.233881654934521              0.6215304760D-07
   current occupation vector 
    28 13
    28 13
      81         -1713.233881654934976              0.2018034628D-07
   current occupation vector 
    28 13
    28 13
      82         -1713.233881654939069              0.1706760866D-07
   current occupation vector 
    28 13
    28 13
      83         -1713.233881654926336              0.1175469722D-07
   current occupation vector 
    28 13
    28 13
      84         -1713.233881654922698              0.5743554184D-08
   current occupation vector 
    28 13
    28 13
      85         -1713.233881654948163              0.3505224111D-08
   current occupation vector 
    28 13
    28 13
      86         -1713.233881654957258              0.4315440210D-08
   current occupation vector 
    28 13
    28 13
      87         -1713.233881654945890              0.1036131538D-08
   current occupation vector 
    28 13
    28 13
      88         -1713.233881654939523              0.1083031017D-08
   current occupation vector 
    28 13
    28 13
      89         -1713.233881654935431              0.3239986501D-08
   current occupation vector 
    28 13
    28 13
      90         -1713.233881654944980              0.9180545213D-09
   current occupation vector 
    28 13
    28 13
      91         -1713.233881654933157              0.1569745667D-08
   current occupation vector 
    28 13
    28 13
      92         -1713.233881654932247              0.2522477338D-08
   current occupation vector 
    28 13
    28 13
      93         -1713.233881654933612              0.3124656978D-08
   current occupation vector 
    28 13
    28 13
      94         -1713.233881654938614              0.8750653535D-09
   current occupation vector 
    28 13
    28 13
      95         -1713.233881654925426              0.2268108368D-08
   current occupation vector 
    28 13
    28 13
      96         -1713.233881654938159              0.3588099595D-08
   current occupation vector 
    28 13
    28 13
      97         -1713.233881654933157              0.5012266158D-09
   current occupation vector 
    28 13
    28 13
      98         -1713.233881654947254              0.2920033104D-09
   current occupation vector 
    28 13
    28 13
      99         -1713.233881654941797              0.7832814397D-09
   current occupation vector 
    28 13
    28 13
     100         -1713.233881654941342              0.8071925350D-09
   current occupation vector 
    28 13
    28 13
     101         -1713.233881654933157              0.7448459627D-09
   current occupation vector 
    28 13
    28 13
     102         -1713.233881654943616              0.2815609967D-09
   current occupation vector 
    28 13
    28 13
     103         -1713.233881654955439              0.3706626117D-09
   current occupation vector 
    28 13
    28 13

  SCF has converged.

 Density matrix saved to file den.dat
 total electron number:   82.000000000000583     
     E(SCF)=     -1713.233881654945435              0.7580380768D-10


  Final occupancies:

     Alpha population by irrep:  28   13
      Beta population by irrep:  28   13


  Eigenvector printing suppressed.

 @PUTMOS-I, Writing converged MOs to NEWMOS. 
 @PUTMOS-I, Symmetry   1 Full Blocks 24 Partial Blocksize   1
 @PUTMOS-I, Symmetry   2 Full Blocks 14 Partial Blocksize   2
 @PUTFOCK-I, Writing converged Fock matrix to NEWFOCK. 
 @PUTFOCK-I, Symmetry   1 Full Blocks 24 Partial Blocksize   1
 @PUTFOCK-I, Symmetry   2 Full Blocks 14 Partial Blocksize   2



  ORBITAL EIGENVALUES (ALPHA)  (1H = 27.2113834 eV)

       MO #        E(hartree)               E(eV)           FULLSYM    COMPSYM
       ----   --------------------   --------------------   -------   ---------
    1     1        -261.3548411759       -7111.8267866823      A1       A'  (1)
    2     2         -31.9223383193        -868.6509870297      A1       A'  (1)
    3     3         -27.4084594915        -745.8220996255      A1       A'  (1)
    4     4         -27.3987007238        -745.5565500565       E       A'  (1)
    5    98         -27.3987007238        -745.5565500563       E       A'' (2)
    6     5         -20.6714371734        -562.4984023544      A1       A'  (1)
    7    99         -20.6646505507        -562.3137289634               A'' (2)
    8     6         -20.6646505507        -562.3137289628               A'  (1)
    9     7         -20.6646501569        -562.3137182470               A'  (1)
   10     8         -11.3933861373        -310.0297984054      A1       A'  (1)
   11   100         -11.3908710550        -309.9613595384               A'' (2)
   12     9         -11.3908710550        -309.9613595377               A'  (1)
   13    10         -11.3908707561        -309.9613514035               A'  (1)
   14    11          -4.1115095229        -111.8798619798      A1       A'  (1)
   15    12          -2.7004195143         -73.4821507447      A1       A'  (1)
   16    13          -2.6891790240         -73.1762814531       E       A'  (1)
   17   101          -2.6891790240         -73.1762814529       E       A'' (2)
   18    14          -1.5156474620         -41.2428641882      A1       A'  (1)
   19    15          -1.5083251823         -41.0436148286      A1       A'  (1)
   20   102          -1.5081920943         -41.0399933192       E       A'' (2)
   21    16          -1.5081920943         -41.0399933186       E       A'  (1)
   22    17          -0.8357763932         -22.7426318719      A1       A'  (1)
   23   103          -0.8054739647         -21.9180608715       E       A'' (2)
   24    18          -0.8054739647         -21.9180608710       E       A'  (1)
   25    19          -0.8040284419         -21.8787261965      A1       A'  (1)
   26    20          -0.7026894015         -19.1211507155      A1       A'  (1)
   27   104          -0.6566709876         -17.8689260107       E       A'' (2)
   28    21          -0.6566709876         -17.8689260105       E       A'  (1)
   29    22          -0.6430305749         -17.4977515125       E       A'  (1)
   30   105          -0.6430305749         -17.4977515121       E       A'' (2)
   31    23          -0.6370630481         -17.3353668505      A1       A'  (1)
   32   106          -0.6340432879         -17.2531950000      A2       A'' (2)
   33   107          -0.6308676140         -17.1667805191       E       A'' (2)
   34    24          -0.6308676140         -17.1667805188       E       A'  (1)
   35   108          -0.6185905984         -16.8327059405       E       A'' (2)
   36    25          -0.6185905984         -16.8327059403       E       A'  (1)
   37    26          -0.5997279539         -16.3194272901      A1       A'  (1)
   38    27          -0.4878932477         -13.2762502225       E       A'  (1)
   39   109          -0.4878932477         -13.2762502214       E       A'' (2)
   40    28          -0.3284768413          -8.9383092662       E       A'  (1)
   41   110          -0.3284768412          -8.9383092630       E       A'' (2)
  +++++++++++++++++++++++++++++++++++++++++++++++++++++++++++++++++++++++++++++
   42    29           0.0271036132           0.7375268093      A1       A'  (1)
   43    30           0.0882579800           2.4016217331      A1       A'  (1)
   44    31           0.1118178772           3.0427191271       E       A'  (1)
   45   111           0.1118178772           3.0427191272       E       A'' (2)
   46    32           0.1160071895           3.1567161114       E       A'  (1)
   47   112           0.1160071895           3.1567161117       E       A'' (2)
   48    33           0.1339029288           3.6436839344      A1       A'  (1)
   49   113           0.1429538623           3.8899723555      A2       A'' (2)
   50    34           0.1586446603           4.3169406752       E       A'  (1)
   51   114           0.1586446603           4.3169406766       E       A'' (2)
   52   115           0.1954069230           5.3172927007       E       A'' (2)
   53    35           0.1954069230           5.3172927011       E       A'  (1)
   54    36           0.2582533379           7.0274305920      A1       A'  (1)
   55    37           0.3039258356           8.2702424385      A1       A'  (1)
   56    38           0.3652912116           9.9400792115       E       A'  (1)
   57   116           0.3652912116           9.9400792117       E       A'' (2)
   58    39           0.3976855664          10.8215744189       E       A'  (1)
   59   117           0.3976855664          10.8215744191       E       A'' (2)
   60    40           0.4009852094          10.9113622712      A1       A'  (1)
   61    41           0.5201984288          14.1553188904      A1       A'  (1)
   62    42           0.5377240916          14.6322164199      A1       A'  (1)
   63    43           0.5397989771          14.6886769256       E       A'  (1)
   64   118           0.5397989772          14.6886769263       E       A'' (2)
   65    44           0.6547642447          17.8170409004       E       A'  (1)
   66   119           0.6547642448          17.8170409009       E       A'' (2)
   67    45           0.6717879684          18.2802799717      A1       A'  (1)
   68   120           0.7207563930          19.6127785476       E       A'' (2)
   69    46           0.7207563930          19.6127785478       E       A'  (1)
   70   121           0.7724092132          21.0183232411      A2       A'' (2)
   71    47           0.7812714753          21.2594776529      A1       A'  (1)
   72   122           0.7959291847          21.6583342034       E       A'' (2)
   73    48           0.7959291847          21.6583342035       E       A'  (1)
   74    49           0.8319946965          22.6397266729      A1       A'  (1)
   75    50           0.8673767790          23.6025220853       E       A'  (1)
   76   123           0.8673767790          23.6025220857       E       A'' (2)
   77    51           0.9190802868          25.0094460586      A1       A'  (1)
   78    52           0.9278602061          25.2483598088       E       A'  (1)
   79   124           0.9278602061          25.2483598089       E       A'' (2)
   80    53           0.9950239483          27.0759781481      A1       A'  (1)
   81    54           1.0145497133          27.6073012281      A1       A'  (1)
   82   125           1.0210771747          27.7849224828       E       A'' (2)
   83    55           1.0210771748          27.7849224831       E       A'  (1)
   84    56           1.1782029382          32.0605318744      A1       A'  (1)
   85    57           1.2291038644          33.4456164914       E       A'  (1)
   86   126           1.2291038644          33.4456164916       E       A'' (2)
   87   127           1.2475905205          33.9486639808       E       A'' (2)
   88    58           1.2475905206          33.9486639811       E       A'  (1)
   89   128           1.2815256486          34.8720857614       E       A'' (2)
   90    59           1.2815256486          34.8720857614       E       A'  (1)
   91   129           1.2883733690          35.0584217049      A2       A'' (2)
   92    60           1.3012019407          35.4075048886      A1       A'  (1)
   93   130           1.3078214134          35.5876298987       E       A'' (2)
   94    61           1.3078214134          35.5876298988       E       A'  (1)
   95   131           1.3199657265          35.9180934590      A2       A'' (2)
   96    62           1.3350114011          36.3275070789      A1       A'  (1)
   97   132           1.3548663325          36.8677872281       E       A'' (2)
   98    63           1.3548663325          36.8677872281       E       A'  (1)
   99    64           1.4091143062          38.3439496404       E       A'  (1)
  100   133           1.4091143062          38.3439496405       E       A'' (2)
  101    65           1.4392003170          39.1626316150       E       A'  (1)
  102   134           1.4392003170          39.1626316153       E       A'' (2)
  103   135           1.4538351549          39.5608657995      A2       A'' (2)
  104    66           1.4838782337          40.3783795351       E       A'  (1)
  105   136           1.4838782337          40.3783795352       E       A'' (2)
  106    67           1.5491698289          42.1550541656      A1       A'  (1)
  107    68           1.5700405983          42.7229766742       E       A'  (1)
  108   137           1.5700405984          42.7229766757       E       A'' (2)
  109    69           1.5854777658          43.1430433567      A1       A'  (1)
  110   138           1.6772400608          45.6400223486       E       A'' (2)
  111    70           1.6772400608          45.6400223488       E       A'  (1)
  112    71           1.7006916293          46.2781719700      A1       A'  (1)
  113    72           1.7942106045          48.8229526586      A1       A'  (1)
  114    73           1.7989276177          48.9513091141       E       A'  (1)
  115   139           1.7989276177          48.9513091146       E       A'' (2)
  116    74           2.1049311202          57.2780877414      A1       A'  (1)
  117   140           2.1105196521          57.4301594263       E       A'' (2)
  118    75           2.1105196521          57.4301594264       E       A'  (1)
  119    76           2.1195284234          57.6753005561      A1       A'  (1)
  120    77           2.1884299999          59.5502077710       E       A'  (1)
  121   141           2.1884299999          59.5502077717       E       A'' (2)
  122    78           2.3147179989          62.9866789307      A1       A'  (1)
  123    79           2.4057379649          65.4634581241       E       A'  (1)
  124   142           2.4057379650          65.4634581247       E       A'' (2)
  125    80           2.8527978250          77.6285753791      A1       A'  (1)
  126   143           2.9360257098          79.8933212612       E       A'' (2)
  127    81           2.9360257098          79.8933212612       E       A'  (1)
  128   144           2.9365360389          79.9072080235      A2       A'' (2)
  129   145           2.9395366294          79.9888582416       E       A'' (2)
  130    82           2.9395366294          79.9888582422       E       A'  (1)
  131    83           2.9410747945          80.0307138403       E       A'  (1)
  132   146           2.9410747945          80.0307138409       E       A'' (2)
  133    84           2.9548920973          80.4067017641      A1       A'  (1)
  134    85           3.0634399423          83.3604387923      A1       A'  (1)
  135    86           3.0730143099          83.6209705797       E       A'  (1)
  136   147           3.0730143099          83.6209705797       E       A'' (2)
  137   148           3.2382655829          88.1176863270      A2       A'' (2)
  138   149           3.3005052710          89.8113143442       E       A'' (2)
  139    87           3.3005052711          89.8113143444       E       A'  (1)
  140    88           3.4883029036          94.9215477256       E       A'  (1)
  141   150           3.4883029036          94.9215477258       E       A'' (2)
  142    89           3.4923578999          95.0318897845      A1       A'  (1)
  143    90           3.5698880484          97.1415923794       E       A'  (1)
  144   151           3.5698880484          97.1415923798       E       A'' (2)
  145   152           3.7419448297         101.8234954220       E       A'' (2)
  146    91           3.7419448297         101.8234954221       E       A'  (1)
  147    92           3.8396597105         104.4824525074      A1       A'  (1)
  148   153           3.8526070520         104.8347675810       E       A'' (2)
  149    93           3.8526070520         104.8347675813       E       A'  (1)
  150    94           3.8593964609         105.0195167889      A1       A'  (1)
  151   154           3.9405067130         107.2266389582      A2       A'' (2)
  152    95           4.1623702635         113.2638530927       E       A'  (1)
  153   155           4.1623702635         113.2638530928       E       A'' (2)
  154    96           4.2863625422         116.6378545277      A1       A'  (1)
  155    97           4.4878747813         122.1212813247      A1       A'  (1)


  VSCF finished.

 @CHECKOUT-I, Total execution time (CPU/WALL):      306.56/      28.95 seconds.
--executable xvscf finished with status     0 in       28.96 seconds (walltime).
 --invoking executable--
/opt/cfour/2.1/bin/xvtran
 @GETMEM-I,  Allocated   30517 MB of main memory.
  Full RHF integral transformation
  The following  17 MOs will be dropped:
    1  2  3  4  5  6  7  8  9 10 11 12 13 29 30 31 32
  There are 138 active molecular orbitals.
  Transformation of IIII integrals :
  1 pass through the AO integral file was required.
    11927991 AO integrals were read.
     7477568 MO integrals were written to HF2.
  Transformation of IIJJ integrals :
  1 pass through the AO integral file was required.
     7653293 AO integrals were read.
     5301436 MO integrals were written to HF2.
  Transformation of IJIJ integrals :
  1 pass through the AO integral file was required.
    14798817 AO integrals were read.
    10289880 MO integrals were written to HF2.
  Summary of active molecular orbitals: 
------------------------------------------------------------------------

  Index      Eigenvalue    Symmetry    Index      Eigenvalue    Symmetry
------------------------------------------------------------------------
     1        -1.5156475        1        70         2.1049311        1
     2        -1.5083252        1        71         2.1105197        1
     3        -1.5081921        1        72         2.1195284        1
     4        -0.8357764        1        73         2.1884300        1
     5        -0.8054740        1        74         2.3147180        1
     6        -0.8040284        1        75         2.4057380        1
     7        -0.7026894        1        76         2.8527978        1
     8        -0.6566710        1        77         2.9360257        1
     9        -0.6430306        1        78         2.9395366        1
    10        -0.6370630        1        79         2.9410748        1
    11        -0.6308676        1        80         2.9548921        1
    12        -0.6185906        1        81         3.0634399        1
    13        -0.5997280        1        82         3.0730143        1
    14        -0.4878932        1        83         3.3005053        1
    15        -0.3284768        1        84         3.4883029        1
    16        -1.5081921        2        85         3.4923579        1
    17        -0.8054740        2        86         3.5698880        1
    18        -0.6566710        2        87         3.7419448        1
    19        -0.6430306        2        88         3.8396597        1
    20        -0.6340433        2        89         3.8526071        1
    21        -0.6308676        2        90         3.8593965        1
    22        -0.6185906        2        91         4.1623703        1
    23        -0.4878932        2        92         4.2863625        1
    24        -0.3284768        2        93         4.4878748        1
    25         0.0271036        1        94         0.1118179        2
    26         0.0882580        1        95         0.1160072        2
    27         0.1118179        1        96         0.1429539        2
    28         0.1160072        1        97         0.1586447        2
    29         0.1339029        1        98         0.1954069        2
    30         0.1586447        1        99         0.3652912        2
    31         0.1954069        1       100         0.3976856        2
    32         0.2582533        1       101         0.5397990        2
    33         0.3039258        1       102         0.6547642        2
    34         0.3652912        1       103         0.7207564        2
    35         0.3976856        1       104         0.7724092        2
    36         0.4009852        1       105         0.7959292        2
    37         0.5201984        1       106         0.8673768        2
    38         0.5377241        1       107         0.9278602        2
    39         0.5397990        1       108         1.0210772        2
    40         0.6547642        1       109         1.2291039        2
    41         0.6717880        1       110         1.2475905        2
    42         0.7207564        1       111         1.2815256        2
    43         0.7812715        1       112         1.2883734        2
    44         0.7959292        1       113         1.3078214        2
    45         0.8319947        1       114         1.3199657        2
    46         0.8673768        1       115         1.3548663        2
    47         0.9190803        1       116         1.4091143        2
    48         0.9278602        1       117         1.4392003        2
    49         0.9950239        1       118         1.4538352        2
    50         1.0145497        1       119         1.4838782        2
    51         1.0210772        1       120         1.5700406        2
    52         1.1782029        1       121         1.6772401        2
    53         1.2291039        1       122         1.7989276        2
    54         1.2475905        1       123         2.1105197        2
    55         1.2815256        1       124         2.1884300        2
    56         1.3012019        1       125         2.4057380        2
    57         1.3078214        1       126         2.9360257        2
    58         1.3350114        1       127         2.9365360        2
    59         1.3548663        1       128         2.9395366        2
    60         1.4091143        1       129         2.9410748        2
    61         1.4392003        1       130         3.0730143        2
    62         1.4838782        1       131         3.2382656        2
    63         1.5491698        1       132         3.3005053        2
    64         1.5700406        1       133         3.4883029        2
    65         1.5854778        1       134         3.5698880        2
    66         1.6772401        1       135         3.7419448        2
    67         1.7006916        1       136         3.8526071        2
    68         1.7942106        1       137         3.9405067        2
    69         1.7989276        1       138         4.1623703        2
------------------------------------------------------------------------
  -1.5156474620169142       -1.5083251823441639       -1.5081920942901295      -0.83577639319394892      -0.80547396465575105      -0.80402844187856792      -0.70268940150723935      -0.65667098757234754      -0.64303057493699378      -0.63706304805098046      -0.63086761398554825      -0.61859059838587260      -0.59972795392985589      -0.48789324774004594      -0.32847684128315235       -1.5081920943122578      -0.80547396467468368      -0.65667098758165754      -0.64303057492057525      -0.63404328792624121      -0.63086761399643143      -0.61859059839271535      -0.48789324769900233      -0.32847684116803572        2.7103613161387218E-002   8.8257980045613693E-002  0.11181787718501335       0.11600718952607378       0.13390292881605043       0.15864466027665280       0.19540692301080856       0.25825333790374350       0.30392583563149006       0.36529121159937039       0.39768556636299690       0.40098520941714033       0.52019842880918254       0.53772409159844547       0.53979897712879532       0.65476424474676487       0.67178796840184651       0.72075639299593042       0.78127147526549856       0.79592918467744223       0.83199469648792168       0.86737677898814214       0.91908028676587283       0.92786020606231734       0.99502394825210960        1.0145497133411376        1.0210771747500640        1.1782029382007206        1.2291038643554277        1.2475905205584843        1.2815256486139530        1.3012019406765263        1.3078214134002193        1.3350114011090235        1.3548663324525037        1.4091143061976725        1.4392003169906209        1.4838782336628060        1.5491698288891815        1.5700405983104628        1.5854777657766510        1.6772400608212616        1.7006916292969445        1.7942106044710013        1.7989276176999727        2.1049311201657939        2.1105196520958378        2.1195284233914435        2.1884299998889887        2.3147179988897442        2.4057379649480697        2.8527978250115669        2.9360257097858566        2.9395366294442313        2.9410747944661813        2.9548920972591888        3.0634399422820766        3.0730143098734510        3.3005052710544756        3.4883029036138304        3.4923578999111218        3.5698880483736786        3.7419448296827280        3.8396597104792853        3.8526070519918507        3.8593964608546241        4.1623702634936812        4.2863625422186509        4.4878747812824979       0.11181787719172157       0.11600718954042213       0.14295386229697857       0.15864466033016811       0.19540692299752696       0.36529121160826877       0.39768556636998120       0.53979897715704872       0.65476424476452511       0.72075639298671967       0.77240921316514799       0.79592918467434082       0.86737677900390420       0.92786020606833375        1.0210771747372374        1.2291038643640810        1.2475905205466651        1.2815256486135791        1.2883733689518448        1.3078214133973876        1.3199657265139100        1.3548663324511980        1.4091143062030203        1.4392003170008631        1.4538351548685631        1.4838782336648124        1.5700405983663186        1.6772400608133211        1.7989276177193116        2.1105196520910918        2.1884299999114636        2.4057379649670376        2.9360257097853384        2.9365360389387498        2.9395366294248975        2.9410747944866662        3.0730143098756177        3.2382655828884128        3.3005052710476948        3.4883029036220781        3.5698880483875004        3.7419448296789719        3.8526070519806908        3.9405067130163483        4.1623702634975501     
 @CHECKOUT-I, Total execution time (CPU/WALL):      163.50/      22.08 seconds.
--executable xvtran finished with status     0 in       22.10 seconds (walltime).
 --invoking executable--
/opt/cfour/2.1/bin/xintprc
 @GETMEM-I,  Allocated   30517 MB of main memory.
  @GMOIAA-I, Processing MO integrals for spin case AA.
  @GMOIAA-I, Generation of integral list completed.
                      TYPE                NUMBER
                      ----               --------
                      PPPP              10774998
                      PPPH               8992052
                      PPHH               1877974
                      PHPH                988425
                      PHHH                412560
                      HHHH                 22875

                     TOTAL              23068884

  @FORMT2-I, Second-order MP correlation energies:
            ------------------------------------------------
            E(SCF)                  =  -1713.233881654945 a.u.
            E2(AA)                  =     -0.271276601128 a.u.
            E2(AB)                  =     -1.207533881326 a.u.
            E2(TOT)                 =     -1.750087083583 a.u.
            Total MP2 energy        =  -1714.983968738528 a.u.
            ------------------------------------------------
   Largest T2 amplitudes for spin case AB:
       _       _                 _       _                 _       _
   i   j   a   b             i   j   a   b             i   j   a   b
-----------------------------------------------------------------------------
[...]
 -------------------------------------------------------
         1                S              1.99999525
         1                S              1.99987885
         1                S              2.01187413
         1                S              0.19438190
         1                S              0.02014110
         1                S             -0.01143866
         1                P              1.99995862
         1                P              1.99830293
         1                P              0.40187719
         1                P             -0.45456845
         1                P              0.11001421
         1                P              1.99997376
         1                P              2.00044277
         1                P              0.07517385
         1                P              0.50814933
         1                P             -0.11609411
         1                P              1.99997376
         1                P              2.00044277
         1                P              0.07517385
         1                P              0.50814933
         1                P             -0.11609411
         1                D              0.15788317
         1                D              0.02137235
         1                D             -0.02642197
         1                D              1.84804205
         1                D              0.00733284
         1                D              0.00540064
         1                D              1.84804205
         1                D              0.00733284
         1                D              0.00540064
         1                D              0.75645043
         1                D              0.01804326
         1                D             -0.01021478
         1                D              1.43395926
         1                D              0.02540035
         1                D             -0.00721857
         1                D              0.75645043
         1                D              0.01804326
         1                D             -0.01021478
         1                F              0.00072402
         1                F              0.00092144
         1                F              0.00092144
         1                F              0.00063602
         1                F              0.00018602
         1                F              0.00063602
         1                F              0.00060372
         1                F              0.00031267
         1                F              0.00135043
         1                F              0.00025780
         2                S              2.00286711
         2                S              1.68653540
         2                S             -0.10401374
         2                P              1.21172440
         2                P             -0.23163620
         2                P              0.65347539
         2                P             -0.10101880
         2                P              0.65347539
         2                P             -0.10101880
         2                D              0.02234485
         2                D              0.06044462
         2                D              0.06044462
         2                D              0.00605946
         2                D              0.00094649
         2                D              0.00605946
         3                S              2.00279958
         5                S              2.00279958
         3                S              1.68134019
         5                S              1.68134019
         3                S             -0.11482215
         5                S             -0.11482215
         3                P              0.62397342
         5                P              0.62397342
         3                P             -0.07636714
         5                P             -0.07636714
         3                P              0.82399002
         5                P              0.82399002
         3                P             -0.13491089
         5                P             -0.13491089
         3                P              1.07827217
         5                P              1.07827217
         3                P             -0.20647529
         5                P             -0.20647529
         3                D              0.00621824
         5                D              0.00621824
         3                D              0.01325670
         5                D              0.01325670
         3                D              0.03904614
         5                D              0.03904614
         3                D              0.02382598
         5                D              0.02382598
         3                D              0.03832185
         5                D              0.03832185
         3                D              0.03337121
         5                D              0.03337121
         4                S              2.00279958
         4                S              1.68134019
         4                S             -0.11482215
         4                P              0.62397342
         4                P             -0.07636714
         4                P              1.20541324
         4                P             -0.24225750
         4                P              0.69684895
         4                P             -0.09912868
         4                D              0.00621824
         4                D              0.05194085
         4                D              0.00036198
         4                D              0.02631916
         4                D              0.06197118
         4                D              0.00722869
         6                S              2.00198746
         6                S              1.85017490
         6                S             -0.08161764
         6                P              1.52230363
         6                P             -0.15278865
         6                P              1.51194916
         6                P             -0.01489555
         6                P              1.51194916
         6                P             -0.01489555
         6                D              0.00693769
         6                D              0.00709899
         6                D              0.00709899
         6                D              0.00173462
         6                D              0.00000039
         6                D              0.00173462
         7                S              2.00194686
         9                S              2.00194686
         7                S              1.85214994
         9                S              1.85214994
         7                S             -0.08696064
         9                S             -0.08696064
         7                P              1.45372805
         9                P              1.45372805
         7                P             -0.01654741
         9                P             -0.01654741
         7                P              1.55278224
         9                P              1.55278224
         7                P             -0.04981174
         9                P             -0.04981174
         7                P              1.53638537
         9                P              1.53638537
         7                P             -0.11774508
         9                P             -0.11774508
         7                D              0.00171229
         9                D              0.00171229
         7                D              0.00184263
         9                D              0.00184263
         7                D              0.00552675
         9                D              0.00552675
         7                D              0.00268465
         9                D              0.00268465
         7                D              0.00759082
         9                D              0.00759082
         7                D              0.00527419
         9                D              0.00527419
         8                S              2.00194686
         8                S              1.85214994
         8                S             -0.08696064
         8                P              1.45372805
         8                P             -0.01654741
         8                P              1.52818693
         8                P             -0.15171175
         8                P              1.56098067
         8                P             -0.01584507
         8                D              0.00171229
         8                D              0.00736880
         8                D              0.00000057
         8                D              0.00693505
         8                D              0.00685865
         8                D              0.00175597
 -------------------------------------------------------
  Population analysis by atoms (atomic charges).
 -------------------------------------------------------
     Z-matrix
      Center          Function          Population
 -------------------------------------------------------
         1                              26.06734131
         2                               5.82668964
         3                               5.83184003
         5                               5.83184003
         4                               5.83184003
         6                               8.15877223
         7                               8.15055891
         9                               8.15055891
         8                               8.15055891
 -------------------------------------------------------

  Mulliken population analysis of CCSD(T) density.
   Total density is analyzed.

  Population analysis by orbitals.
 -------------------------------------------------------
     Z-matrix
      Center          Function          Population
 -------------------------------------------------------
         1                S              1.99999578
         1                S              1.99988781
         1                S              2.00839160
         1                S              0.30262870
         1                S              0.03323589
         1                S             -0.01050255
         1                P              1.99996728
         1                P              1.99828328
         1                P              0.36713023
         1                P             -0.37536234
         1                P              0.09322656
         1                P              1.99998206
         1                P              1.99857212
         1                P              0.20473607
         1                P              0.33394591
         1                P             -0.06092306
         1                P              1.99998206
         1                P              1.99857212
         1                P              0.20473607
         1                P              0.33394591
         1                P             -0.06092306
         1                D              0.36140543
         1                D              0.01454800
         1                D             -0.02059096
         1                D              1.60754451
         1                D              0.03430727
         1                D              0.03870096
         1                D              1.60754451
         1                D              0.03430727
         1                D              0.03870096
         1                D              0.79826072
         1                D              0.02212406
         1                D             -0.00081293
         1                D              1.41581872
         1                D              0.03697411
         1                D              0.00866963
         1                D              0.79826072
         1                D              0.02212406
         1                D             -0.00081293
         1                F              0.00134766
         1                F              0.00274818
         1                F              0.00274818
         1                F              0.00272744
         1                F              0.00343340
         1                F              0.00272744
         1                F              0.00165853
         1                F              0.00290638
         1                F              0.00360150
         1                F              0.00142682
         2                S              2.00335036
         2                S              1.57982448
         2                S             -0.15175823
         2                P              1.10878854
         2                P             -0.20970830
         2                P              0.81085671
         2                P             -0.11390752
         2                P              0.81085671
         2                P             -0.11390752
         2                D              0.02367070
         2                D              0.06087796
         2                D              0.06087796
         2                D              0.00820105
         2                D              0.00456675
         2                D              0.00820105
         3                S              2.00333115
         5                S              2.00333115
         3                S              1.62876881
         5                S              1.62876881
         3                S             -0.13612388
         5                S             -0.13612388
         3                P              0.74651697
         5                P              0.74651697
         3                P             -0.09195904
         5                P             -0.09195904
         3                P              0.89465828
         5                P              0.89465828
         3                P             -0.13483029
         5                P             -0.13483029
         3                P              1.05555742
         5                P              1.05555742
         3                P             -0.19392921
         5                P             -0.19392921
         3                D              0.00860163
         5                D              0.00860163
         3                D              0.01581502
         5                D              0.01581502
         3                D              0.03937063
         5                D              0.03937063
         3                D              0.02305270
         5                D              0.02305270
         3                D              0.03877795
         5                D              0.03877795
         3                D              0.03232426
         5                D              0.03232426
         4                S              2.00333115
         4                S              1.62876881
         4                S             -0.13612388
         4                P              0.74651697
         4                P             -0.09195904
         4                P              1.13600699
         4                P             -0.22347867
         4                P              0.81420871
         4                P             -0.10528082
         4                D              0.00860163
         4                D              0.05114844
         4                D              0.00403722
         4                D              0.02773640
         4                D              0.05722524
         4                D              0.00919327
         6                S              2.00213991
         6                S              1.86358253
         6                S             -0.11814496
         6                P              1.49955176
         6                P             -0.14146583
         6                P              1.48981328
         6                P             -0.04147017
         6                P              1.48981328
         6                P             -0.04147017
         6                D              0.00884755
         6                D              0.01045540
         6                D              0.01045540
         6                D              0.00407113
         6                D              0.00371848
         6                D              0.00407113
         7                S              2.00209211
         9                S              2.00209211
         7                S              1.86694812
         9                S              1.86694812
         7                S             -0.12507853
         9                S             -0.12507853
         7                P              1.43811508
         9                P              1.43811508
         7                P             -0.04866406
         9                P             -0.04866406
         7                P              1.51321496
         9                P              1.51321496
         7                P             -0.06711858
         9                P             -0.06711858
         7                P              1.51708365
         9                P              1.51708365
         7                P             -0.11673740
         9                P             -0.11673740
         7                D              0.00401593
         9                D              0.00401593
         7                D              0.00536835
         9                D              0.00536835
         7                D              0.00871494
         9                D              0.00871494
         7                D              0.00506211
         9                D              0.00506211
         7                D              0.01073853
         9                D              0.01073853
         7                D              0.00742319
         9                D              0.00742319
         8                S              2.00209211
         8                S              1.86694812
         8                S             -0.12507853
         8                P              1.43811508
         8                P             -0.04866406
         8                P              1.51901799
         8                P             -0.14154681
         8                P              1.51128062
         8                P             -0.04230917
         8                D              0.00401593
         8                D              0.01038824
         8                D              0.00369506
         8                D              0.00879963
         8                D              0.01034674
         8                D              0.00407747
 -------------------------------------------------------
  Population analysis by atoms (atomic charges).
 -------------------------------------------------------
     Z-matrix
      Center          Function          Population
 -------------------------------------------------------
         1                              26.21190808
         2                               5.89079071
         3                               5.92993242
         5                               5.92993242
         4                               5.92993242
         6                               8.04396872
         7                               8.02117841
         9                               8.02117841
         8                               8.02117841
 -------------------------------------------------------
 @CHECKOUT-I, Total execution time (CPU/WALL):        2.32/       0.19 seconds.
--executable xprops finished with status     0 in        0.21 seconds (walltime).
  The final electronic energy is     -1714.949093725168723 a.u. 
  This computation required                        16778.36 seconds (walltime).
Attempting to clean /scratch/jearias... save is False. TIME: Tue 04 Mar 2025 07:41:23 PM PST
Total of 16779 seconds elapsed for this process.
