 --invoking executable--
/opt/cfour/2.1/bin/xjoda


   *************************************************************************
         <<<     CCCCCC     CCCCCC   |||     CCCCCC     CCCCCC   >>>
       <<<      CCC        CCC       |||    CCC        CCC         >>>
      <<<      CCC        CCC        |||   CCC        CCC            >>>
    <<<        CCC        CCC        |||   CCC        CCC              >>>
      <<<      CCC        CCC        |||   CCC        CCC            >>>
       <<<      CCC        CCC       |||    CCC        CCC         >>>
         <<<     CCCCCC     CCCCCC   |||     CCCCCC     CCCCCC   >>>
   *************************************************************************

     ****************************************************************
     * CFOUR Coupled-Cluster techniques for Computational Chemistry *
     ****************************************************************


   Department of Chemistry                Institut fuer Physikalische Chemie
   University of Florida                  Universitaet Mainz
   Gainesville, FL 32611, USA             D-55099 Mainz, Germany

   Department of Chemistry                Fakultaet fuer Chemie und Biowiss.
   Johns Hopkins University               Karlsruher Institut fuer Technologie
   Baltimore, MD 21218, USA               D-76131 Karlsruhe, Germany

   Department of Chemistry                Department of Physical Chemistry
   Southern Methodist University          Eotvos Lorand University
   Dallas, TX 75275, USA                  H-1053 Budapest, Hungary


                       Version 2.1

                     node006                                           
                     Thu 28 Aug 2025 10:45:00 PM PDT                   
                     integer*8 version is running

********************************************************************************
*                          Input from ZMAT file                                *
********************************************************************************
Optimization on FeCO4 (C2v), S0                                                 
FE                                                                              
X 1 RDX                                                                         
C 1 RC1* 2 AC1*                                                                 
C 1 RC1* 2 AC1* 3 D180                                                          
C 1 RC2* 2 AC2* 4 D90                                                           
C 1 RC2* 2 AC2* 3 D90                                                           
O 1 RO1* 2 AO1* 4 D180                                                          
O 1 RO1* 2 AO1* 3 D180                                                          
O 1 RO2* 2 AO2* 6 D180                                                          
O 1 RO2* 2 AO2* 5 D180                                                          
                                                                                
RDX  =   1.25                                                                   
RC1  =   1.796531369024685                                                      
AC1  =  62.96703139425694                                                       
RC2  =   1.844669135626477                                                      
AC2  =  94.78154                                                                
RO1  =   2.954078447724298                                                      
AO1  =  60.109745                                                               
RO2  =   2.998901502428020                                                      
AO2  =  95.400635                                                               
D90  =  90.0                                                                    
D180 = 180.0                                                                    
                                                                                
*ACES2(CALC = CCSD(T)                                                           
      BASIS = SPECIAL                                                           
FROZEN_CORE = ON                                                                
   SCF_CONV = 10                                                                
    CC_CONV = 8                                                                 
 LINEQ_CONV = 8                                                                 
   SCF_MAXCYC = 500                                                             
    CC_MAXCYC = 500                                                             
 LINEQ_MAXCYC = 500                                                             
       MEMORY = 32                                                              
     MEM_UNIT = GB)                                                             
                                                                                
Fe:cc-pVTZ                                                                      
C:cc-pVTZ                                                                       
C:cc-pVTZ                                                                       
C:cc-pVTZ                                                                       
C:cc-pVTZ                                                                       
O:cc-pVTZ                                                                       
O:cc-pVTZ                                                                       
O:cc-pVTZ                                                                       
O:cc-pVTZ                                                                       
                                                                                
********************************************************************************
    -------------------------------------------------------------------
                    CFOUR Control Parameters 
    -------------------------------------------------------------------
        External           Internal           Value            Units
          Name               Name
    -------------------------------------------------------------------
       ABCDTYPE             IABCDT         STANDARD    [  0]    ***   
       ANHARMONIC           IANHAR         OFF         [  0]    ***   
       ANH_ALGORIT          IANALG         STANDARD    [  0]    ***   
       ANH_DERIVAT          IANDER         SECOND      [  1]    ***   
       ANH_MODE             ANHMOD         VIBRATION   [  0]    ***   
       ANH_STEPSIZ          ICUBST             50000          x 10-6  
       ANH_SYMMETR          IANHSM         ABELIAN     [  0]    ***   
       AO_LADDERS           IAOLAD         SINGLEPASS  [  1]    ***   
       AV_SCF               IAVSCF         OFF         [  0]    ***   
       BASIS                IBASIS         SPECIAL     [  0]    ***   
       BOTHVECTORS          BOTHVC         OFF         [  0]    ***   
       BOX_POTENT           IPIAB          OFF         [  0]    ***   
       BREIT                IBREIT         OFF         [  0]    ***   
       BRUCK_CONV           IBRTOL          10D-  4             ***   
       BRUECKNER            IBRKNR         OFF         [  0]    ***   
       BUFFERSIZE           IBUFFS              4096            ***   
       CACHE_RECS           ICHREC             10               ***   
       CALCLEVEL            ICLLVL         CCSD(T)     [ 22]    ***   
       CCORBOPT             ICCORB         OFF         [  0]  x 0.01  
       CC_CONV              ICCCNV          10D-  8             ***   
       CC_EXPORDER          ICCEOR              5               ***   
       CC_EXTRAPOL          ICCEXT         DIIS        [  1]    ***   
       CC_GUESS             ICCGES         MP2         [  0]    ***   
       CC_MAXCYC            ICCCYC            500              cycles 
       CC_PROGRAM           ICCPRO         VCC         [  0]    ***   
       CHARGE               ICHRGE              0               ***   
       CHOLESKY             ICHOLE         OFF         [  0]    ***   
       CIS_CONV             ICISTL              5               ***   
       COMM_SIZE            IPSIZE            ***               ***   
       CONSTANT             ICONST         OLD         [  1]    ***   
       CONTINUUM            ICONTU         NONE        [  0]    ***   
       CONTRACTION          ICNTYP         GENERAL     [  1]    ***   
       COORDINATES          ICOORD         INTERNAL    [  0]    ***   
       CPHF_CONVER          ICPHFT          10D- 16             ***   
       CPHF_MAXCYC          ICPHFC             64              cycles 
       CUBIC                ICUBIC         OFF         [  0]    ***   
       CURVILINEAR          ICURVY         OFF         [  0]    ***   
       DBOC                 IDBOC          OFF         [  0]    ***   
       DCT                  IDCT           OFF         [  0]    ***   
       DERIV_LEV            IDRLVL         FIRST       [  1]    ***   
       DEVMEM_SIZE          IDVMEM         *********           MByte  
       DIAG_MRCC            IEOMST          10D-  0             ***   
       DIFF_TYPE            IDIFTY         RELAXED     [  0]    ***   
       DIRECT               IDIRCT         OFF         [  0]    ***   
       DROPMO               IDRPMO      NONE         
       ECP                  IECP           OFF         [  0]    ***   
       EIGENVECTOR          IVEC                1               ***   
       EL_ANHARM            IELANH         OFF         [  0]    ***   
       EOMFOLLOW            IEOMSR         ENERGY      [  0]    ***   
       EOMIP                IEOMIP         OFF         [  0]    ***   
       EOMLEVEL             HBARFM         SAME        [  0]    ***   
       EOM_MRCC             IMRCCE         NEW         [  1]    ***   
       EOM_NONIT            EOMNON         OFF         [  0]    ***   
       EOM_NSING            IEOMSI          10D-  0             ***   
       EOM_NSTATES          IMRCCD         DAVIDSON    [  0]    ***   
       EOM_NTRIP            IEOMTR          10D-  0             ***   
       EOM_ORDER            IEXORD         ENERGY      [  0]    ***   
       EOM_PROPSTA          IEOMST              0               ***   
       ESTATE_CONV          IEXTOL          10D-  5             ***   
       ESTATE_DIAG          IEXDIG         ITERATIVE   [  0]    ***   
       ESTATE_LOCK          IESLOC         ON          [  1]    ***   
       ESTATE_MAXC          IEXMXC             40               ***   
       ESTATE_PROP          IEXPRP         OFF         [  0]    ***   
       EVAL_HESS            IRECAL              0            # of cyc.
       EXCITATION           IEXCIT              0               ***   
       EXCITE               IEXCIT         NONE        [  0]    ***   
       EXTERN_POT           IEXPOT         OFF         [  0]    ***   
       FCGRADNEW            IFCGNW         ON          [  1]    ***   
       FC_FIELD             IFINFC              0             x 10-6  
       FD_CALTYPE           IFDCAL         GRADONLY    [  0]    ***   
       FD_PROJECT           IFDPRJ         OFF         [  1]    ***   
       FD_STEPSIZE          IDISFD              0            10-4 bohr
       FD_USEGROUP          IFDGRP         FULL        [  0]    ***   
       FILE_RECSIZ          IFLREC              4096           words  
       FINITE_PERT          IFIPER              0             x 10-6  
       FIXGEOM              IFIXGM         OFF         [  0]    ***   
       FOCK                 IFOCK          AO          [  1]    ***   
       FREQ_ALGORI          IVIALG         STANDARD    [  0]    ***   
       FROZEN_CORE          IFROCO         ON          [  1]    ***   
       GAMMA_ABCD           IGABCD         STORE       [  0]    ***   
       GAMMA_ABCI           IGABCI         STORE       [  0]    ***   
       GENBAS_1             IGNBS1              0               ***   
       GENBAS_2             IGNBS2              0               ***   
       GENBAS_3             IGNBS3              0               ***   
       GENBAS_4             IGNBS4              0               ***   
       GEO_CONV             ICONTL              5              H/bohr 
       GEO_MAXCYC           IOPTCY             50               ***   
       GEO_MAXSTEP          IMXSTP            300            millibohr
       GEO_METHOD           INR            NR          [  0]    ***   
       GIAO                 IGIAO          OFF         [  1]    ***   
       GIMIC                IGIMIC         OFF         [  0]    ***   
       GRID                 IGRID          OFF         [  0]    ***   
       GRID_ALGO            IGALGO         SERIAL      [  0]    ***   
       GUESS                IGUESS         MOREAD      [  0]    ***   
       HBAR                 IHBAR          OFF         [  0]    ***   
       HESS_TYPE            IHESTP         SCF         [  0]    ***   
       HF2_FILE             IHF2Fl         USE         [  1]    ***   
       HFSTABILITY          ISTABL         OFF         [  0]    ***   
       INCORE               INCORE         OFF         [  0]    ***   
       INPUT_MRCC           IMRCC          ON          [  1]    ***   
       INTEGRALS            INTTYP         VMOL        [  1]    ***   
       JODA_PRINT           IJPRNT              0               ***   
       KEYWORD_OUT          IDMPKW         NO          [  0]    ***   
       LINDEP_TOL           ILINDP              8               ***   
       LINEQ_CONV           IZTACN          10D-  8           cycles  
       LINEQ_EXPOR          ILMAXD              5               ***   
       LINEQ_MAXCY          ILMAXC            500               ***   
       LINEQ_TYPE           ILTYPE         DIIS        [  1]    ***   
       LOCK_ORBOCC          ILOCOC         OFF         [  0]    ***   
       MEMORY_SIZE          IMEMSZ         *********           words  
       MEM_UNIT             IMEMU          GB          [  3]    ***   
       MRCC                 IMRCCC         OFF         [  0]    ***   
       MULTIPLICTY          IMULTP              1               ***   
       NACOUPLING           IVCOUP         OFF         [  0]    ***   
       NEGEVAL              IDIE           ABORT       [  0]    ***   
       NEWNORM              INEWNO         OFF         [  0]    ***   
       NON-HF               INONHF         OFF         [  0]    ***   
       NTOP_TAMP            ITOPT2             15               ***   
       NUC_MODEL            INUCMO         POINT       [  0]    ***   
       OCCUPATION           IOCCU   ESTIMATED BY SCF 
       OPEN-SHELL           IOPEN          SPIN-ORBITAL[  0]    ***   
       OPTVIB               IOPTVB         OFF         [  0]    ***   
       ORBITALS             IORBTP         STANDARD    [  0]    ***   
       PARALLEL             IPARAL         ON          [  1]    ***   
       PARA_INT             IPINTS         ON          [  1]    ***   
       PARA_PRINT           IPPRIN              0               ***   
       PERT_ORB             IPTORB         CANONICAL   [  1]    ***   
       POINTS               IGRDFD              0               ***   
       PRINT                IPRNT               0               ***   
       PROPS                IPROPS         OFF         [  0]    ***   
       PROP_INTEGR          IINTYP         INTERNAL    [  0]    ***   
       PSI                  IPSI           OFF         [  0]    ***   
       QC_ALG               IQCALG         FLM         [  0]    ***   
       QC_LINALG            IQCLIN         TRIDIAG     [  2]    ***   
       QC_MAXCYC            IQCMAX          10D-100           cycles  
       QC_MAXSCFCY          IQCMSC          10D- 15           cycles  
       QC_RTRUST            IQCRTR          10D-  0           x 10-3  
       QC_SKIPSCF           IQCSKI         OFF         [  0]    ***   
       QC_START             IQCSTA          10D-  1             ***   
       QRHFGUESS            IQGUES         OFF         [  0]    ***   
       QUARTIC              IQUART         OFF         [  0]    ***   
       RAMAN_INT            IRAMIN         OFF         [  0]    ***   
       RAMAN_ORB            IRAMRE         UNRELAXED   [  0]    ***   
       RDO                  IRDOFM         ON          [  1]    ***   
       REDUCE_REPR          REDREP         Ir          [  0]    ***   
       REFERENCE            IREFNC         RHF         [  0]    ***   
       RELATIVIST           IRELAT         OFF         [  0]    ***   
       RELAX_DENS           IRDENS         ON          [  1]    ***   
       RESET_FLAGS          IRESET         OFF         [  0]    ***   
       RESTART_CC           ICCRES         OFF         [  0]    ***   
       ROT_EVEC             ROTVEC              0               ***   
       SAVE_INTS            ISVINT         OFF         [  0]    ***   
       SCALE_ON             ISTCRT              0               ***   
       SCF_CONV             ISCFCV          10D- 10             ***   
       SCF_DAMPING          IDAMP               0             x 10-3  
       SCF_EXPORDE          IRPPOR              6               ***   
       SCF_EXPSTAR          IRPPLS              8               ***   
       SCF_EXTRAPO          IRPP           ON          [  1]    ***   
       SCF_MAXCYC           ISCFCY            500              cycles 
       SCF_NOSTOP           ISCFST         OFF         [  0]    ***   
       SCF_PRINT            ISCFPR              0               ***   
       SCF_PROG             ISCFPR         SCF         [  0]    ***   
       SD_FIELD             IFINSD              0             x 10-6  
       SOPERT               IPERSO         OFF         [  0]    ***   
       SPHERICAL            IDFGHI         ON          [  1]    ***   
       SPINORBIT            ISOCAL         OFF         [  0]    ***   
       SPINROTATIO          ISRCON         OFF         [  0]    ***   
       SPIN_FLIP            ISPFLP         OFF         [  0]    ***   
       SPIN_ORBIT           ISPORB         OFF         [  0]    ***   
       SPIN_SCAL            ISCSMP         OFF         [  0]    ***   
       STEEPSCALE           ISTPSC              1000          x 10-3  
       SUBGROUP             ISUBGP         DEFAULT     [  0]    ***   
       SUBGRPAXIS           ISBXYZ         X           [  0]    ***   
       SYMMETRY             ISYM           ON          [  0]    ***   
       SYM_CHECK            ISYMCK         OVERRIDE    [  1]    ***   
       T3_EXTRAPOL          IT3EXT         OFF         [  0]    ***   
       T4_EXTRAPOL          IT4EXP         OFF         [  0]    ***   
       TAMP_SUM             IEVERY              5               ***   
       TESTSUITE            ITESTS         OFF         [  0]    ***   
       THERMOCH             ITHERM         OFF         [  0]    ***   
       TOL_CHOLESK          ITOLCH          10D-  4             ***   
       TRANGRAD             IRESRM         OFF         [  0]    ***   
       TRANS_INV            ITRAIN         USE         [  0]    ***   
       TREAT_PERT           ITREAT         SIMULTANEOUS[  0]    ***   
       TRIP_ALGORI          ITRALG         NORMAL      [  0]    ***   
       UIJ_THRESHO          IUIJTH              1               ***   
       UNITS                IUNITS         ANGSTROM    [  0]    ***   
       UNOS                 IUNOS          OFF         [  0]    ***   
       UPDATE_HESS          IHUPDT         ON          [  1]    ***   
       VIBPHASE             ISETPH         STANDARD    [  0]    ***   
       VIBRATION            IVIB           NO          [  0]    ***   
       VIB_ALGORIT          IGEALG         STANDARD    [  0]    ***   
       VNATORB              IVNORB         OFF         [  0]    ***   
       VTRAN                IVTRAN         FULL/PARTIAL[  0]    ***   
       XFIELD               IXEFLD              0             x 10-6  
       XFORM_TOL            IXFTOL          10D- 11             ***   
       YFIELD               IYEFLD              0             x 10-6  
       ZFIELD               IZEFLD              0             x 10-6  
       ZSCALE_EXP           IZEXPS         OFF         [  0]    ***   
    -------------------------------------------------------------------
  10 entries found in Z-matrix 
   Job Title : Optimization on FeCO4 (C2v), S0                                                 
   There are 11 unique internal coordinates.
   Of these,  8 will be optimized.
   User supplied Z-matrix: 
--------------------------------------------------------------------------------
       SYMBOL    BOND      LENGTH    ANGLE     ANGLE     DIHED     ANGLE
                  TO      (ANGST)    WRT      (DEG)      WRT      (DEG)
--------------------------------------------------------------------------------
        FE   
        X          1         RDX  
        C          1         RC1        2        AC1  
        C          1         RC1        2        AC1        3        D180 
        C          1         RC2        2        AC2        4        D90  
        C          1         RC2        2        AC2        3        D90  
        O          1         RO1        2        AO1        4        D180 
        O          1         RO1        2        AO1        3        D180 
        O          1         RO2        2        AO2        6        D180 
        O          1         RO2        2        AO2        5        D180 
                  *Initial values for internal coordinates* 
                      Name             Value
                        RDX             1.2500000000
                        RC1             1.7965313690
                        AC1            62.9670313943
                        D180          180.0000000000
                        RC2             1.8446691356
                        AC2            94.7815400000
                        D90            90.0000000000
                        RO1             2.9540784477
                        AO1            60.1097450000
                        RO2             2.9989015024
                        AO2            95.4006350000
--------------------------------------------------------------------------------
  filter applied 
  filter applied 
   Rotational constants (in cm-1): 
          0.0264415942             0.0385451946             0.0492349682
   Rotational constants (in MHz): 
        792.6991642411          1155.5560238971          1476.0274191108
********************************************************************************
   The full molecular point group is C2v .
   The largest Abelian subgroup of the full molecular point group is C2v .
   The computational point group is C2v .
********************************************************************************
--------------------------------------------------------------------------------
   Analysis of internal coordinates specified by Z-matrix 
--------------------------------------------------------------------------------
   *The nuclear repulsion energy is  580.683686013206852 a.u.
   *There are   8 degrees of freedom within the tot. symm. molecular subspace.
   *Z-matrix requests optimization of   8 coordinates.
   *The optimization is unconstrained and your Z-matrix is great.
--------------------------------------------------------------------------------


 ----------------------------------------------------------------
         Coordinates used in calculation (QCOMP) 
 ----------------------------------------------------------------
 Z-matrix   Atomic            Coordinates (in bohr)
  Symbol    Number           X              Y              Z
 ----------------------------------------------------------------
     FE       26         0.00000000     0.00000000    -0.60738828
     X         0         0.00000000     0.00000000     1.75476987
     C         6        -0.00000000    -3.02403788     0.93562843
     C         6         0.00000000     3.02403788     0.93562843
     C         6         3.47378837    -0.00000000    -0.89796337
     C         6        -3.47378837     0.00000000    -0.89796337
     O         8        -0.00000000    -4.83983797     2.17454674
     O         8         0.00000000     4.83983797     2.17454674
     O         8         5.64194698    -0.00000000    -1.14077238
     O         8        -5.64194698     0.00000000    -1.14077238
 ----------------------------------------------------------------

   Interatomic distance matrix (Angstroms) 

                 FE            X             C             C             C    
                [ 1]        [ 2]        [ 3]        [ 4]        [ 5]
  FE   [ 1]     0.00000
  X    [ 2]     1.25000     0.00000
  C    [ 3]     1.79653     1.65792     0.00000
  C    [ 4]     1.79653     1.65792     3.20050     0.00000
  C    [ 5]     1.84467     2.31295     2.62325     2.62325     0.00000
  C    [ 6]     1.84467     2.31295     2.62325     2.62325     3.67650
  O    [ 7]     2.95408     2.57075     1.16323     4.21271     3.54713
  O    [ 8]     2.95408     2.57075     4.21271     1.16323     3.54713
  O    [ 9]     2.99890     3.35582     3.56116     3.56116     1.15451
  O    [10]     2.99890     3.35582     3.56116     3.56116     4.82555

                 C             O             O             O             O    
                [ 6]        [ 7]        [ 8]        [ 9]        [10]
  C    [ 6]     0.00000
  O    [ 7]     3.54713     0.00000
  O    [ 8]     3.54713     5.12226     0.00000
  O    [ 9]     4.82555     4.30709     4.30709     0.00000
  O    [10]     1.15451     4.30709     4.30709     5.97118     0.00000
 rotcon2
   Rotational constants (in cm-1): 
          0.0492349682             0.0385451946             0.0264415942
   Rotational constants (in MHz): 
       1476.0274191108          1155.5560238971           792.6991642411
  ECPDATA file not present.   Using default ECPDATA. 
  There are  17 frozen-core orbitals.
  There are  308 basis functions.
 @CHECKOUT-I, Total execution time (CPU/WALL):        2.57/       0.59 seconds.
--executable xjoda finished with status     0 in        0.63 seconds (walltime).
 --invoking executable--
/opt/cfour/2.1/bin/xvmol
 SERIAL VERSION OF MOLECULE STARTED
********************************************************************************
                    INPUT FROM MOL FILE
********************************************************************************
INTGRL        1    0    1    0    0    0    0    0    0                         
         *** CFOUR Program System (Release V0.1) ***                            
Optimization on FeCO4 (C2v), S0                                                 
    5    2 X  Y       0.10E-08              0    0                              
   9999.00      3.00                                                            
         26.00000000    1    5    1    1    1    1    1                         
FE#1   0.000000000000000   0.000000000000000  -0.607388282385794                
   20    7                                                                      
   4316265.0000000000        8.0488029999999998E-006  -4.1559539999999997E-006  
   646342.40000000002        6.2583059999999998E-005  -3.2314010000000003E-005  
   147089.70000000001        3.2902389999999999E-004  -1.6995250000000000E-004  
   41661.519999999997        1.3873550000000001E-003  -7.1713690000000004E-004  
   13590.770000000000        5.0232560000000002E-003  -2.6036250000000000E-003  
   4905.7500000000000        1.6101399999999998E-002  -8.3991090000000001E-003  
   1912.7460000000001        4.5900339999999998E-002  -2.4341089999999999E-002  
   792.60429999999997       0.11361540000000001       -6.2519480000000002E-002  
   344.80650000000003       0.22838690000000000      -0.13659289999999999       
   155.89990000000000       0.32211590000000001      -0.23127070000000000       
   72.230909999999994       0.23836610000000000      -0.23837340000000001       
   32.725059999999999        7.4046669999999995E-002   3.1238370000000001E-002  
   15.667619999999999        9.2141970000000004E-002  0.50868179999999996      -
   7.5034830000000001        9.3397900000000006E-002  0.49876949999999998      -
   3.3122229999999999        1.5739650000000001E-002   9.0335520000000002E-002  
   1.5584709999999999       -4.1866819999999998E-004  -6.0053370000000003E-003  
  0.68391400000000002        5.3763179999999999E-005   2.3124539999999999E-004  
  0.14675700000000000       -3.8166539999999997E-005  -5.6436799999999999E-004  
   7.0583000000000007E-002   4.3196030000000000E-005   4.9922599999999997E-004  
   3.1448999999999998E-002  -3.4010190000000000E-006  -1.0152930000000000E-004  
   16    6                                                                      
   17745.689999999999        4.1000000000000000E-005  -1.5000000000000000E-005  
   4200.7209999999995        3.6900000000000002E-004  -1.2999999999999999E-004  
   1364.4290000000001        2.1289999999999998E-003  -7.5100000000000004E-004  
   522.08060000000000        9.3690000000000006E-003  -3.3289999999999999E-003  
   221.45949999999999        3.3097000000000001E-002  -1.1912000000000001E-002  
   100.90960000000000        9.4431000000000001E-002  -3.4932999999999999E-002  
   48.401150000000001       0.20807700000000001       -7.9989000000000005E-002  
   23.985360000000000       0.33233299999999999      -0.13463600000000001       
   12.182499999999999       0.33298699999999998      -0.13859800000000000       
   6.2422979999999999       0.15684300000000001        3.0277999999999999E-002  
   3.1109439999999999        2.1548999999999999E-002  0.33321600000000001      -
   1.5099579999999999       -2.0950000000000001E-003  0.45615299999999998      -
  0.71084499999999995       -1.7390000000000001E-003  0.28505100000000000       
  0.27318999999999999       -2.9999999999999997E-004   4.6143999999999998E-002  
  0.10423300000000001        2.9000000000000000E-005  -3.2490000000000002E-003 -
   3.8290999999999999E-002  -1.1000000000000000E-005   1.3569999999999999E-003 -
    8    4                                                                      
   113.34399999999999        3.5300000000000002E-003  -3.8899999999999998E-003  
   33.641399999999997        2.5784000000000001E-002  -2.8441999999999999E-002  
   12.331000000000000        9.9118999999999999E-002 -0.11242900000000000       
   4.9947800000000004       0.23907300000000001      -0.27425699999999997       
   2.0728000000000000       0.35719899999999999      -0.31554599999999999       
  0.83075299999999996       0.36218800000000001        5.7109000000000000E-002 -
  0.30917800000000001       0.23646100000000000       0.56360399999999999       
  0.10013000000000000        6.0117999999999998E-002  0.38463700000000001       
    2    2                                                                      
   3.2757999999999998        1.0000000000000000        0.0000000000000000       
  0.79200000000000004        0.0000000000000000        1.0000000000000000       
    1    1                                                                      
   2.0897000000000001        1.0000000000000000                                 
          6.00000000    1    4    1    1    1    1                              
C #2  -0.000000000000001  -3.024037880800049   0.935628433698337                
   10    4                                                                      
   8236.0000000000000        5.3100000000000000E-004   0.0000000000000000       
   1235.0000000000000        4.1079999999999997E-003   0.0000000000000000       
   280.80000000000001        2.1087000000000002E-002   0.0000000000000000       
   79.269999999999996        8.1852999999999995E-002   0.0000000000000000       
   25.590000000000000       0.23481700000000000        0.0000000000000000       
   8.9969999999999999       0.43440099999999998        0.0000000000000000      -
   3.3190000000000000       0.34612900000000002        0.0000000000000000      -
  0.90590000000000004        3.9378000000000003E-002   1.0000000000000000       
  0.36430000000000001       -8.9829999999999997E-003   0.0000000000000000       
  0.12850000000000000        2.3850000000000000E-003   0.0000000000000000       
    5    3                                                                      
   18.710000000000001        0.0000000000000000        1.4031000000000000E-002  
   4.1330000000000000        0.0000000000000000        8.6865999999999999E-002  
   1.2000000000000000        0.0000000000000000       0.29021599999999997       
  0.38269999999999998        1.0000000000000000       0.50100800000000001       
  0.12089999999999999        0.0000000000000000       0.34340599999999999       
    2    2                                                                      
   1.0970000000000000        1.0000000000000000        0.0000000000000000       
  0.31800000000000000        0.0000000000000000        1.0000000000000000       
    1    1                                                                      
  0.76100000000000001        1.0000000000000000                                 
          6.00000000    1    4    1    1    1    1                              
C #3   3.473788374746610  -0.000000000000001  -0.897963368636794                
   10    4                                                                      
   8236.0000000000000        5.3100000000000000E-004   0.0000000000000000       
   1235.0000000000000        4.1079999999999997E-003   0.0000000000000000       
   280.80000000000001        2.1087000000000002E-002   0.0000000000000000       
   79.269999999999996        8.1852999999999995E-002   0.0000000000000000       
   25.590000000000000       0.23481700000000000        0.0000000000000000       
   8.9969999999999999       0.43440099999999998        0.0000000000000000      -
   3.3190000000000000       0.34612900000000002        0.0000000000000000      -
  0.90590000000000004        3.9378000000000003E-002   1.0000000000000000       
  0.36430000000000001       -8.9829999999999997E-003   0.0000000000000000       
  0.12850000000000000        2.3850000000000000E-003   0.0000000000000000       
    5    3                                                                      
   18.710000000000001        0.0000000000000000        1.4031000000000000E-002  
   4.1330000000000000        0.0000000000000000        8.6865999999999999E-002  
   1.2000000000000000        0.0000000000000000       0.29021599999999997       
  0.38269999999999998        1.0000000000000000       0.50100800000000001       
  0.12089999999999999        0.0000000000000000       0.34340599999999999       
    2    2                                                                      
   1.0970000000000000        1.0000000000000000        0.0000000000000000       
  0.31800000000000000        0.0000000000000000        1.0000000000000000       
    1    1                                                                      
  0.76100000000000001        1.0000000000000000                                 
          8.00000000    1    4    1    1    1    1                              
O #4  -0.000000000000001  -4.839837974578403   2.174546738124927                
   10    4                                                                      
   15330.000000000000        5.0799999999999999E-004   0.0000000000000000       
   2299.0000000000000        3.9290000000000002E-003   0.0000000000000000       
   522.39999999999998        2.0243000000000001E-002   0.0000000000000000       
   147.30000000000001        7.9181000000000001E-002   0.0000000000000000       
   47.549999999999997       0.23068700000000000        0.0000000000000000       
   16.760000000000002       0.43311800000000000        0.0000000000000000      -
   6.2069999999999999       0.35026000000000002        0.0000000000000000      -
   1.7520000000000000        4.2728000000000002E-002   1.0000000000000000       
  0.68820000000000003       -8.1539999999999998E-003   0.0000000000000000       
  0.23840000000000000        2.3809999999999999E-003   0.0000000000000000       
    5    3                                                                      
   34.460000000000001        0.0000000000000000        1.5928000000000001E-002  
   7.7489999999999997        0.0000000000000000        9.9739999999999995E-002  
   2.2799999999999998        0.0000000000000000       0.31049199999999999       
  0.71560000000000001        1.0000000000000000       0.49102600000000002       
  0.21400000000000000        0.0000000000000000       0.33633700000000000       
    2    2                                                                      
   2.3140000000000001        1.0000000000000000        0.0000000000000000       
  0.64500000000000002        0.0000000000000000        1.0000000000000000       
    1    1                                                                      
   1.4279999999999999        1.0000000000000000                                 
          8.00000000    1    4    1    1    1    1                              
O #5   5.641946984116242  -0.000000000000001  -1.140772382015606                
   10    4                                                                      
   15330.000000000000        5.0799999999999999E-004   0.0000000000000000       
   2299.0000000000000        3.9290000000000002E-003   0.0000000000000000       
   522.39999999999998        2.0243000000000001E-002   0.0000000000000000       
   147.30000000000001        7.9181000000000001E-002   0.0000000000000000       
   47.549999999999997       0.23068700000000000        0.0000000000000000       
   16.760000000000002       0.43311800000000000        0.0000000000000000      -
   6.2069999999999999       0.35026000000000002        0.0000000000000000      -
   1.7520000000000000        4.2728000000000002E-002   1.0000000000000000       
  0.68820000000000003       -8.1539999999999998E-003   0.0000000000000000       
  0.23840000000000000        2.3809999999999999E-003   0.0000000000000000       
    5    3                                                                      
   34.460000000000001        0.0000000000000000        1.5928000000000001E-002  
   7.7489999999999997        0.0000000000000000        9.9739999999999995E-002  
   2.2799999999999998        0.0000000000000000       0.31049199999999999       
  0.71560000000000001        1.0000000000000000       0.49102600000000002       
  0.21400000000000000        0.0000000000000000       0.33633700000000000       

Running with 32 threads/proc

    2    2                                                                      
   2.3140000000000001        1.0000000000000000        0.0000000000000000       
  0.64500000000000002        0.0000000000000000        1.0000000000000000       
    1    1                                                                      
   1.4279999999999999        1.0000000000000000                                 
FINISH                                                                          

********************************************************************************
 ONE- AND TWO-ELECTRON INTEGRALS OVER SYMMETRY-ADAPTED AOS ARE CALCULATED.

  SPHERICAL HARMONICS ARE USED.
  
  INTEGRALS LESS THAN  0.10E-13 ARE NEGLECTED.

  NUCLEAR REPULSION ENERGY :  580.6836860132 A.U.
  @MOLECU-I, ONE ELECTRON INTEGRALS (CPU/WALL):        2.08/       0.13 SECONDS.
  @TWOEL-I,   24773786 INTEGRALS OF SYMMETRY TYPE  I I I I
  @TWOEL-I,  101643393 INTEGRALS OF SYMMETRY TYPE  I J I J
  @TWOEL-I,   52603435 INTEGRALS OF SYMMETRY TYPE  I I J J
  @TWOEL-I,   81871568 INTEGRALS OF SYMMETRY TYPE  I J K L
  @TWOEL-I, TOTAL NUMBER OF 2-E INTEGRALS  260892182.
  @MOLECU-I, TWO ELECTRON INTEGRALS (CPU/WALL):     3496.16/     149.11 SECONDS.
 @CHECKOUT-I, Total execution time (CPU/WALL):     3498.35/     149.24 seconds.
--executable xvmol finished with status     0 in      149.27 seconds (walltime).
 --invoking executable--
/opt/cfour/2.1/bin/xvmol2ja
 @GETMEM-I,  Allocated   30517 MB of main memory.
 @CHECKOUT-I, Total execution time (CPU/WALL):        0.49/       0.02 seconds.
--executable xvmol2ja finished with status     0 in        0.06 seconds (walltime).
 --invoking executable--
/opt/cfour/2.1/bin/xvscf
  There are  308 functions in the AO basis.

  There are 4 irreducible representations.

       Irrep        # of functions
         1                108
         2                 76
         3                 76
         4                 48


  Parameters for SCF calculation: 
        SCF reference function:  RHF  
  Maximum number of iterations:  500
     Full symmetry point group: C2v 
     Computational point group: C2v 
        Initial density matrix: MOREAD                 
     SCF convergence tolerance: 10**(-10)
  DIIS convergence acceleration:  ON
          Latest start for DIIS:   8
                     DIIS order:   6

  Memory information:    4323368 words required.
  Fock matrices are constructed from AO integral file.
 @GETMEM-I,  Allocated      32 MB of main memory.
  Initialization and symmetry analysis required      0.013 seconds.

  @INITGES-I, Occupancies from core Hamiltonian:

          Alpha population by irrep:  18   10    9    4
           Beta population by irrep:  18   10    9    4


 total no. of electrons in initial guess :   0.0000000000000000     
  --------------------------------------------------------------------
  Iteration         Total Energy            Largest Density Difference
  --------------------------------------------------------------------
       0           580.683686013206739              0.0000000000D+00
   current occupation vector 
    18 10  9  4
    18 10  9  4
       1          -845.075962100847278              0.2811800760D+04
   current occupation vector 
    18 10  9  4
    18 10  9  4
       2         -1005.902563722588752              0.2572870718D+04
   current occupation vector 
    17 10 10  4
    17 10 10  4
       3          -857.077374411717415              0.2366417271D+04
   current occupation vector 
    18  9 10  4
    18  9 10  4
       4         -1005.091497138724094              0.2376981506D+04
   current occupation vector 
    17 10 10  4
    17 10 10  4
       5          -857.055877631688304              0.2377097300D+04
   current occupation vector 
    18  9 10  4
    18  9 10  4
       6         -1005.084830612077553              0.2377184559D+04
   current occupation vector 
    17 10 10  4
    17 10 10  4
       7          -857.055668884012107              0.2377186049D+04
   current occupation vector 
    18  9 10  4
    18  9 10  4
       8         -1005.084780278723315              0.2377186949D+04
   current occupation vector 
    17 10 10  4
    17 10 10  4
       9         -1117.061837546771130              0.1770423944D+04
   current occupation vector 
    19  9 10  3
    19  9 10  3
      10         -1124.414718804195218              0.5603875479D+02
   current occupation vector 
    19  9 10  3
    19  9 10  3
      11         -1178.111973154119369              0.3737082767D+03
   current occupation vector 
    19  9 10  3
    19  9 10  3
      12         -1279.545859452485729              0.4576500183D+03
   current occupation vector 
    19  9 10  3
    19  9 10  3
      13         -1421.688070794940359              0.3779643247D+03
   current occupation vector 
    19  9 10  3
    19  9 10  3
      14         -1316.011826339944491              0.2955507737D+03
   current occupation vector 
    18 10 10  3
    18 10 10  3
      15         -1146.096893127941712              0.9252885718D+03
   current occupation vector 
    17 10 10  4
    17 10 10  4
      16         -1512.989670764330640              0.1978860093D+03
   current occupation vector 
    19  9 10  3
    19  9 10  3
      17         -1544.105528379209318              0.8910573377D+02
   current occupation vector 
    19  9 10  3
    19  9 10  3
      18         -1501.763318833845460              0.1197036296D+03
   current occupation vector 
    19  9 10  3
    19  9 10  3
      19         -1492.354584232990874              0.3254128936D+02
   current occupation vector 
    19  9 10  3
    19  9 10  3
      20         -1494.604751951035269              0.1422343441D+02
   current occupation vector 
    19  9 10  3
    19  9 10  3
      21         -1488.887456918105272              0.1658961433D+02
   current occupation vector 
    19  9 10  3
    19  9 10  3
      22         -1501.701870675236023              0.2742538408D+03
   current occupation vector 
    17 11  9  4
    17 11  9  4
      23         -1576.517745593690051              0.2460009656D+03
   current occupation vector 
    19  9 10  3
    19  9 10  3
      24         -1609.374844023233891              0.4422749149D+01
   current occupation vector 
    19  9 10  3
    19  9 10  3
      25         -1637.836504322474411              0.9319504286D+01
   current occupation vector 
    19  9 10  3
    19  9 10  3
      26         -1679.369355929434278              0.8356159768D+01
   current occupation vector 
    19  9 10  3
    19  9 10  3
      27         -1709.910929016394675              0.5242222581D+01
   current occupation vector 
    18 10 10  3
    18 10 10  3
      28         -1710.518319576770409              0.2517748140D+01
   current occupation vector 
    18 10 10  3
    18 10 10  3
      29         -1713.058478408769588              0.9687019298D+00
   current occupation vector 
    18 10 10  3
    18 10 10  3
      30         -1713.251724411364648              0.4288230436D+00
   current occupation vector 
    18 10 10  3
    18 10 10  3
      31         -1713.320080797253013              0.1587847777D+00
   current occupation vector 
    18 10 10  3
    18 10 10  3
      32         -1713.324549085607487              0.1060073319D+00
   current occupation vector 
    18 10 10  3
    18 10 10  3
      33         -1713.325976486860327              0.1631819497D-01
   current occupation vector 
    18 10 10  3
    18 10 10  3
      34         -1713.326756637422932              0.2796770956D-01
   current occupation vector 
    18 10 10  3
    18 10 10  3
      35         -1713.327213842030687              0.2264953715D-01
   current occupation vector 
    18 10 10  3
    18 10 10  3
      36         -1713.328115358780451              0.5284060262D-01
   current occupation vector 
    18 10 10  3
    18 10 10  3
      37         -1713.328662393691957              0.5071140212D-01
   current occupation vector 
    18 10 10  3
    18 10 10  3
      38         -1713.328816096348419              0.2922217128D-01
   current occupation vector 
    18 10 10  3
    18 10 10  3
      39         -1713.328841216924957              0.5730986879D-02
   current occupation vector 
    18 10 10  3
    18 10 10  3
      40         -1713.328851429417682              0.2931553486D-02
   current occupation vector 
    18 10 10  3
    18 10 10  3
      41         -1713.328859044242563              0.3526042778D-02
   current occupation vector 
    18 10 10  3
    18 10 10  3
      42         -1713.328862657875561              0.2939816396D-02
   current occupation vector 
    18 10 10  3
    18 10 10  3
      43         -1713.328864448736567              0.2288676277D-02
   current occupation vector 
    18 10 10  3
    18 10 10  3
      44         -1713.328864772514862              0.1037849768D-02
   current occupation vector 
    18 10 10  3
    18 10 10  3
      45         -1713.328864937787785              0.4015085707D-03
   current occupation vector 
    18 10 10  3
    18 10 10  3
      46         -1713.328865102513646              0.5043193361D-03
   current occupation vector 
    18 10 10  3
    18 10 10  3
      47         -1713.328865248337479              0.5416031928D-03
   current occupation vector 
    18 10 10  3
    18 10 10  3
      48         -1713.328865291927286              0.3386576383D-03
   current occupation vector 
    18 10 10  3
    18 10 10  3
      49         -1713.328865317915643              0.2729410241D-03
   current occupation vector 
    18 10 10  3
    18 10 10  3
      50         -1713.328865324747312              0.1335066876D-03
   current occupation vector 
    18 10 10  3
    18 10 10  3
      51         -1713.328865326383948              0.5387465261D-04
   current occupation vector 
    18 10 10  3
    18 10 10  3
      52         -1713.328865327024232              0.3647562502D-04
   current occupation vector 
    18 10 10  3
    18 10 10  3
      53         -1713.328865327331641              0.2443955440D-04
   current occupation vector 
    18 10 10  3
    18 10 10  3
      54         -1713.328865327372569              0.1871110102D-04
   current occupation vector 
    18 10 10  3
    18 10 10  3
      55         -1713.328865327360745              0.4364821636D-05
   current occupation vector 
    18 10 10  3
    18 10 10  3
      56         -1713.328865327395306              0.8153791902D-05
   current occupation vector 
    18 10 10  3
    18 10 10  3
      57         -1713.328865327417134              0.2327920786D-05
   current occupation vector 
    18 10 10  3
    18 10 10  3
      58         -1713.328865327390304              0.2398463299D-05
   current occupation vector 
    18 10 10  3
    18 10 10  3
      59         -1713.328865327402127              0.3401741184D-05
   current occupation vector 
    18 10 10  3
    18 10 10  3
      60         -1713.328865327420317              0.4121709011D-05
   current occupation vector 
    18 10 10  3
    18 10 10  3
      61         -1713.328865327408948              0.2889529600D-05
   current occupation vector 
    18 10 10  3
    18 10 10  3
      62         -1713.328865327409858              0.9262446634D-06
   current occupation vector 
    18 10 10  3
    18 10 10  3
      63         -1713.328865327406675              0.5613420564D-06
   current occupation vector 
    18 10 10  3
    18 10 10  3
      64         -1713.328865327409403              0.5427990286D-06
   current occupation vector 
    18 10 10  3
    18 10 10  3
      65         -1713.328865327421227              0.3475346830D-06
   current occupation vector 
    18 10 10  3
    18 10 10  3
      66         -1713.328865327427138              0.2054261727D-06
   current occupation vector 
    18 10 10  3
    18 10 10  3
      67         -1713.328865327427138              0.1174149886D-06
   current occupation vector 
    18 10 10  3
    18 10 10  3
      68         -1713.328865327422591              0.6454885182D-07
   current occupation vector 
    18 10 10  3
    18 10 10  3
      69         -1713.328865327444873              0.5098797229D-07
   current occupation vector 
    18 10 10  3
    18 10 10  3
      70         -1713.328865327413496              0.4976190721D-07
   current occupation vector 
    18 10 10  3
    18 10 10  3
      71         -1713.328865327416224              0.6446805828D-07
   current occupation vector 
    18 10 10  3
    18 10 10  3
      72         -1713.328865327421227              0.7398996582D-07
   current occupation vector 
    18 10 10  3
    18 10 10  3
      73         -1713.328865327428048              0.4648526053D-07
   current occupation vector 
    18 10 10  3
    18 10 10  3
      74         -1713.328865327428048              0.7498177584D-07
   current occupation vector 
    18 10 10  3
    18 10 10  3
      75         -1713.328865327401218              0.5341232084D-07
   current occupation vector 
    18 10 10  3
    18 10 10  3
      76         -1713.328865327437597              0.1196550625D-07
   current occupation vector 
    18 10 10  3
    18 10 10  3
      77         -1713.328865327422136              0.1389947424D-07
   current occupation vector 
    18 10 10  3
    18 10 10  3
      78         -1713.328865327433505              0.1597315236D-07
   current occupation vector 
    18 10 10  3
    18 10 10  3
      79         -1713.328865327418043              0.1072705325D-07
   current occupation vector 
    18 10 10  3
    18 10 10  3
      80         -1713.328865327427593              0.4998829864D-08
   current occupation vector 
    18 10 10  3
    18 10 10  3
      81         -1713.328865327430321              0.1742967237D-07
   current occupation vector 
    18 10 10  3
    18 10 10  3
      82         -1713.328865327431686              0.7233064370D-08
   current occupation vector 
    18 10 10  3
    18 10 10  3
      83         -1713.328865327405765              0.3029338158D-07
   current occupation vector 
    18 10 10  3
    18 10 10  3
      84         -1713.328865327408494              0.6010165698D-08
   current occupation vector 
    18 10 10  3
    18 10 10  3
      85         -1713.328865327438507              0.5919464696D-08
   current occupation vector 
    18 10 10  3
    18 10 10  3
      86         -1713.328865327431231              0.1378807224D-07
   current occupation vector 
    18 10 10  3
    18 10 10  3
      87         -1713.328865327443509              0.4807181098D-08
   current occupation vector 
    18 10 10  3
    18 10 10  3
      88         -1713.328865327447602              0.1509044290D-07
   current occupation vector 
    18 10 10  3
    18 10 10  3
      89         -1713.328865327434414              0.5021376204D-08
   current occupation vector 
    18 10 10  3
    18 10 10  3
      90         -1713.328865327440326              0.2483987682D-08
   current occupation vector 
    18 10 10  3
    18 10 10  3
      91         -1713.328865327446238              0.3826761352D-08
   current occupation vector 
    18 10 10  3
    18 10 10  3
      92         -1713.328865327433959              0.4338718718D-08
   current occupation vector 
    18 10 10  3
    18 10 10  3
      93         -1713.328865327448057              0.2042235048D-08
   current occupation vector 
    18 10 10  3
    18 10 10  3
      94         -1713.328865327459880              0.3592858011D-08
   current occupation vector 
    18 10 10  3
    18 10 10  3
      95         -1713.328865327437597              0.9614339602D-09
   current occupation vector 
    18 10 10  3
    18 10 10  3
      96         -1713.328865327460335              0.1294230723D-08
   current occupation vector 
    18 10 10  3
    18 10 10  3
      97         -1713.328865327441690              0.1147539175D-08
   current occupation vector 
    18 10 10  3
    18 10 10  3
      98         -1713.328865327468066              0.4813363041D-09
   current occupation vector 
    18 10 10  3
    18 10 10  3
      99         -1713.328865327453514              0.7921197032D-09
   current occupation vector 
    18 10 10  3
    18 10 10  3
     100         -1713.328865327434414              0.3829225825D-09
   current occupation vector 
    18 10 10  3
    18 10 10  3
     101         -1713.328865327456697              0.4813807131D-09
   current occupation vector 
    18 10 10  3
    18 10 10  3
     102         -1713.328865327433505              0.2864492810D-09
   current occupation vector 
    18 10 10  3
    18 10 10  3
     103         -1713.328865327457152              0.9379068633D-09
   current occupation vector 
    18 10 10  3
    18 10 10  3
     104         -1713.328865327447147              0.8634566395D-09
   current occupation vector 
    18 10 10  3
    18 10 10  3
     105         -1713.328865327439871              0.1683428952D-08
   current occupation vector 
    18 10 10  3
    18 10 10  3
     106         -1713.328865327444873              0.8066409762D-09
   current occupation vector 
    18 10 10  3
    18 10 10  3
     107         -1713.328865327452604              0.1251757864D-08
   current occupation vector 
    18 10 10  3
    18 10 10  3
     108         -1713.328865327448057              0.2729823478D-08
   current occupation vector 
    18 10 10  3
    18 10 10  3
     109         -1713.328865327428957              0.3283534777D-08
   current occupation vector 
    18 10 10  3
    18 10 10  3
     110         -1713.328865327447147              0.1487542978D-08
   current occupation vector 
    18 10 10  3
    18 10 10  3
     111         -1713.328865327440326              0.4909508355D-09
   current occupation vector 
    18 10 10  3
    18 10 10  3
     112         -1713.328865327440781              0.1993193521D-07
   current occupation vector 
    18 10 10  3
    18 10 10  3
     113         -1713.328865327457152              0.2090395146D-07
   current occupation vector 
    18 10 10  3
    18 10 10  3
     114         -1713.328865327444873              0.1896135693D-08
   current occupation vector 
    18 10 10  3
    18 10 10  3
     115         -1713.328865327459425              0.1042458786D-08
   current occupation vector 
    18 10 10  3
    18 10 10  3
     116         -1713.328865327433959              0.8422489373D-09
   current occupation vector 
    18 10 10  3
    18 10 10  3
     117         -1713.328865327439416              0.2613408157D-08
   current occupation vector 
    18 10 10  3
    18 10 10  3
     118         -1713.328865327437597              0.1012422923D-09
   current occupation vector 
    18 10 10  3
    18 10 10  3
     119         -1713.328865327466247              0.1081418510D-08
   current occupation vector 
    18 10 10  3
    18 10 10  3
     120         -1713.328865327442145              0.5655160784D-09
   current occupation vector 
    18 10 10  3
    18 10 10  3
     121         -1713.328865327468066              0.1260371252D-09
   current occupation vector 
    18 10 10  3
    18 10 10  3
     122         -1713.328865327440326              0.1281759143D-08
   current occupation vector 
    18 10 10  3
    18 10 10  3
     123         -1713.328865327455333              0.6256493101D-09
   current occupation vector 
    18 10 10  3
    18 10 10  3
     124         -1713.328865327442600              0.6905205296D-09
   current occupation vector 
    18 10 10  3
    18 10 10  3
     125         -1713.328865327458061              0.2250446496D-09
   current occupation vector 
    18 10 10  3
    18 10 10  3
     126         -1713.328865327452149              0.2555325729D-08
   current occupation vector 
    18 10 10  3
    18 10 10  3
     127         -1713.328865327466701              0.2208266459D-08
   current occupation vector 
    18 10 10  3
    18 10 10  3
     128         -1713.328865327452604              0.7236680283D-09
   current occupation vector 
    18 10 10  3
    18 10 10  3
     129         -1713.328865327462154              0.8636868998D-09
   current occupation vector 
    18 10 10  3
    18 10 10  3
     130         -1713.328865327458061              0.2963008061D-08
   current occupation vector 
    18 10 10  3
    18 10 10  3
     131         -1713.328865327446692              0.1269869543D-07
   current occupation vector 
    18 10 10  3
    18 10 10  3
     132         -1713.328865327449876              0.1521412885D-07
   current occupation vector 
    18 10 10  3
    18 10 10  3
     133         -1713.328865327435778              0.9289631064D-08
   current occupation vector 
    18 10 10  3
    18 10 10  3
     134         -1713.328865327454423              0.6009744702D-08
   current occupation vector 
    18 10 10  3
    18 10 10  3
     135         -1713.328865327465337              0.2159354473D-08
   current occupation vector 
    18 10 10  3
    18 10 10  3
     136         -1713.328865327438962              0.2331665083D-08
   current occupation vector 
    18 10 10  3
    18 10 10  3
     137         -1713.328865327431686              0.1628928104D-09
   current occupation vector 
    18 10 10  3
    18 10 10  3
     138         -1713.328865327447147              0.7456506523D-09
   current occupation vector 
    18 10 10  3
    18 10 10  3
     139         -1713.328865327435778              0.2111053110D-08
   current occupation vector 
    18 10 10  3
    18 10 10  3
     140         -1713.328865327446238              0.1294516050D-08
   current occupation vector 
    18 10 10  3
    18 10 10  3
     141         -1713.328865327435324              0.4299800516D-09
   current occupation vector 
    18 10 10  3
    18 10 10  3
     142         -1713.328865327447602              0.2046758318D-09
   current occupation vector 
    18 10 10  3
    18 10 10  3
     143         -1713.328865327455333              0.1507816094D-08
   current occupation vector 
    18 10 10  3
    18 10 10  3
     144         -1713.328865327446238              0.3480437882D-09
   current occupation vector 
    18 10 10  3
    18 10 10  3
     145         -1713.328865327445328              0.3498918932D-09
   current occupation vector 
    18 10 10  3
    18 10 10  3
     146         -1713.328865327443509              0.2626536905D-09
   current occupation vector 
    18 10 10  3
    18 10 10  3
     147         -1713.328865327446692              0.1539635086D-08
   current occupation vector 
    18 10 10  3
    18 10 10  3
     148         -1713.328865327456697              0.1551344386D-08
   current occupation vector 
    18 10 10  3
    18 10 10  3
     149         -1713.328865327459425              0.3341769569D-08
   current occupation vector 
    18 10 10  3
    18 10 10  3
     150         -1713.328865327451695              0.6448406864D-08
   current occupation vector 
    18 10 10  3
    18 10 10  3
     151         -1713.328865327454878              0.4118580144D-08
   current occupation vector 
    18 10 10  3
    18 10 10  3
     152         -1713.328865327455787              0.1048127030D-07
   current occupation vector 
    18 10 10  3
    18 10 10  3
     153         -1713.328865327434869              0.6606220238D-08
   current occupation vector 
    18 10 10  3
    18 10 10  3
     154         -1713.328865327452149              0.2264116228D-08
   current occupation vector 
    18 10 10  3
    18 10 10  3
     155         -1713.328865327432595              0.1242687286D-08
   current occupation vector 
    18 10 10  3
    18 10 10  3
     156         -1713.328865327435778              0.3534097459D-09
   current occupation vector 
    18 10 10  3
    18 10 10  3
     157         -1713.328865327459880              0.5190265995D-09
   current occupation vector 
    18 10 10  3
    18 10 10  3
     158         -1713.328865327458971              0.2033259561D-08
   current occupation vector 
    18 10 10  3
    18 10 10  3
     159         -1713.328865327453059              0.2248651931D-08
   current occupation vector 
    18 10 10  3
    18 10 10  3
     160         -1713.328865327446238              0.1046172329D-08
   current occupation vector 
    18 10 10  3
    18 10 10  3
     161         -1713.328865327446238              0.1192774768D-08
   current occupation vector 
    18 10 10  3
    18 10 10  3
     162         -1713.328865327439416              0.7417808590D-09
   current occupation vector 
    18 10 10  3
    18 10 10  3
     163         -1713.328865327456242              0.1114170312D-08
   current occupation vector 
    18 10 10  3
    18 10 10  3
     164         -1713.328865327461244              0.1460425114D-09
   current occupation vector 
    18 10 10  3
    18 10 10  3
     165         -1713.328865327454423              0.4967654899D-09
   current occupation vector 
    18 10 10  3
    18 10 10  3
     166         -1713.328865327443509              0.9822893610D-09
   current occupation vector 
    18 10 10  3
    18 10 10  3
     167         -1713.328865327447147              0.2378202080D-09
   current occupation vector 
    18 10 10  3
    18 10 10  3
     168         -1713.328865327444873              0.1046930542D-08
   current occupation vector 
    18 10 10  3
    18 10 10  3
     169         -1713.328865327444873              0.1113259589D-06
   current occupation vector 
    18 10 10  3
    18 10 10  3
     170         -1713.328865327436233              0.1085784751D-06
   current occupation vector 
    18 10 10  3
    18 10 10  3
     171         -1713.328865327440781              0.4508713188D-08
   current occupation vector 
    18 10 10  3
    18 10 10  3
     172         -1713.328865327439871              0.5816167339D-08
   current occupation vector 
    18 10 10  3
    18 10 10  3
     173         -1713.328865327453059              0.2698567148D-08
   current occupation vector 
    18 10 10  3
    18 10 10  3
     174         -1713.328865327452604              0.4684241439D-08
   current occupation vector 
    18 10 10  3
    18 10 10  3
     175         -1713.328865327458061              0.3867262066D-09
   current occupation vector 
    18 10 10  3
    18 10 10  3
     176         -1713.328865327444419              0.6549862874D-09
   current occupation vector 
    18 10 10  3
    18 10 10  3
     177         -1713.328865327443964              0.4265663378D-08
   current occupation vector 
    18 10 10  3
    18 10 10  3
     178         -1713.328865327453514              0.7652865008D-09
   current occupation vector 
    18 10 10  3
    18 10 10  3
     179         -1713.328865327444873              0.1819346895D-08
   current occupation vector 
    18 10 10  3
    18 10 10  3
     180         -1713.328865327451240              0.1683800877D-08
   current occupation vector 
    18 10 10  3
    18 10 10  3
     181         -1713.328865327452149              0.8082559066D-09
   current occupation vector 
    18 10 10  3
    18 10 10  3
     182         -1713.328865327456242              0.1525086057D-08
   current occupation vector 
    18 10 10  3
    18 10 10  3
     183         -1713.328865327469885              0.1168671382D-08
   current occupation vector 
    18 10 10  3
    18 10 10  3
     184         -1713.328865327476706              0.1023013008D-08
   current occupation vector 
    18 10 10  3
    18 10 10  3
     185         -1713.328865327445328              0.2045462688D-08
   current occupation vector 
    18 10 10  3
    18 10 10  3
     186         -1713.328865327452604              0.1450083387D-08
   current occupation vector 
    18 10 10  3
    18 10 10  3
     187         -1713.328865327445328              0.2289254497D-07
   current occupation vector 
    18 10 10  3
    18 10 10  3
     188         -1713.328865327438962              0.2095155383D-07
   current occupation vector 
    18 10 10  3
    18 10 10  3
     189         -1713.328865327443964              0.3526931386D-08
   current occupation vector 
    18 10 10  3
    18 10 10  3
     190         -1713.328865327443964              0.1131695404D-08
   current occupation vector 
    18 10 10  3
    18 10 10  3
     191         -1713.328865327453059              0.7995155649D-09
   current occupation vector 
    18 10 10  3
    18 10 10  3
     192         -1713.328865327469885              0.4507041823D-09
   current occupation vector 
    18 10 10  3
    18 10 10  3
     193         -1713.328865327453514              0.4814315613D-09
   current occupation vector 
    18 10 10  3
    18 10 10  3

  SCF has converged.

 Density matrix saved to file den.dat
 total electron number:   81.999999999999531     
     E(SCF)=     -1713.328865327455333              0.7125353085D-10


  Final occupancies:

     Alpha population by irrep:  18   10   10    3
      Beta population by irrep:  18   10   10    3


  Eigenvector printing suppressed.

 @PUTMOS-I, Writing converged MOs to NEWMOS. 
 @PUTMOS-I, Symmetry   1 Full Blocks 27 Partial Blocksize   0
 @PUTMOS-I, Symmetry   2 Full Blocks 19 Partial Blocksize   0
 @PUTMOS-I, Symmetry   3 Full Blocks 19 Partial Blocksize   0
 @PUTMOS-I, Symmetry   4 Full Blocks 12 Partial Blocksize   0
 @PUTFOCK-I, Writing converged Fock matrix to NEWFOCK. 
 @PUTFOCK-I, Symmetry   1 Full Blocks 27 Partial Blocksize   0
 @PUTFOCK-I, Symmetry   2 Full Blocks 19 Partial Blocksize   0
 @PUTFOCK-I, Symmetry   3 Full Blocks 19 Partial Blocksize   0
 @PUTFOCK-I, Symmetry   4 Full Blocks 12 Partial Blocksize   0



  ORBITAL EIGENVALUES (ALPHA)  (1H = 27.2113834 eV)

       MO #        E(hartree)               E(eV)           FULLSYM    COMPSYM
       ----   --------------------   --------------------   -------   ---------
    1     1        -261.3085741796       -7110.5677977084      A1        A1 (1)
    2     2         -31.8795158052        -867.4857271818      A1        A1 (1)
    3   109         -27.3704022666        -744.7865098897      B1        B1 (2)
    4   185         -27.3579661700        -744.4481064974      B2        B2 (3)
    5     3         -27.3475023137        -744.1633704918      A1        A1 (1)
    6   110         -20.6780388031        -562.6780418312      E         B1 (2)
    7     4         -20.6780384959        -562.6780334722      E         A1 (1)
    8   186         -20.6447117539        -561.7711667188      E         B2 (3)
    9     5         -20.6447116837        -561.7711648086      E         A1 (1)
   10   111         -11.3975028412        -310.1418196155      E         B1 (2)
   11     6         -11.3975018771        -310.1417933789      E         A1 (1)
   12   187         -11.3761374174        -309.5604368767      E         B2 (3)
   13     7         -11.3761367229        -309.5604179766      E         A1 (1)
   14     8          -4.0807604530        -111.0431372500      A1        A1 (1)
   15   112          -2.6743948774         -72.7739843710      B1        B1 (2)
   16   188          -2.6666538725         -72.5633409193      B2        B2 (3)
   17     9          -2.6502516541         -72.1170138670      A1        A1 (1)
   18    10          -1.5176643195         -41.2977456716      A1        A1 (1)
   19   113          -1.5175634242         -41.2950001697      B1        B1 (2)
   20    11          -1.4836100959         -40.3710831364      A1        A1 (1)
   21   189          -1.4834699576         -40.3672697776      B2        B2 (3)
   22    12          -0.8425175783         -22.9260688442      A1        A1 (1)
   23   114          -0.8205980238         -22.3296074425      B1        B1 (2)
   24    13          -0.7973426445         -21.6967964001      A1        A1 (1)
   25   190          -0.7949980882         -21.6329977797      B2        B2 (3)
   26    14          -0.7078874217         -19.2625960363      A1        A1 (1)
   27   261          -0.6620086062         -18.0141699968      A2        A2 (4)
   28   191          -0.6582247354         -17.9112056384      B2        B2 (3)
   29   115          -0.6540877718         -17.7986331367      B1        B1 (2)
   30   116          -0.6471330109         -17.6093844693      B1        B1 (2)
   31    15          -0.6466289751         -17.5956689578      A1        A1 (1)
   32   192          -0.6263435032         -17.0436732045      B2        B2 (3)
   33    16          -0.6262195385         -17.0402999557      A1        A1 (1)
   34   262          -0.6180457510         -16.8178798902      A2        A2 (4)
   35   193          -0.6112862024         -16.6339432195      B2        B2 (3)
   36   117          -0.5999845946         -16.3264108370      B1        B1 (2)
   37    17          -0.5996269647         -16.3166792332      A1        A1 (1)
   38   263          -0.4298499681         -11.6968122875      A2        A2 (4)
   39   118          -0.4298241834         -11.6961106485      B1        B1 (2)
   40    18          -0.3635597208          -9.8929629521      A1        A1 (1)
   41   194          -0.3219631606          -8.7610630037      B2        B2 (3)
  +++++++++++++++++++++++++++++++++++++++++++++++++++++++++++++++++++++++++++++
   42    19           0.0072144175           0.1963142804      A1        A1 (1)
   43    20           0.0746309218           2.0308106271      A1        A1 (1)
   44   195           0.1021150703           2.7786923299      B2        B2 (3)
   45   119           0.1022485456           2.7823243776      B1        B1 (2)
   46   264           0.1119631801           3.0466730214      A2        A2 (4)
   47    21           0.1205414634           3.2800999774      A1        A1 (1)
   48   120           0.1268095450           3.4506631480      B1        B1 (2)
   49   196           0.1289733675           3.5095437527      B2        B2 (3)
   50    22           0.1500525528           4.0831375449      A1        A1 (1)
   51   121           0.1672052638           4.5498865388      B1        B1 (2)
   52   197           0.1763368174           4.7983687464      B2        B2 (3)
   53   265           0.2102958263           5.7224403571      A2        A2 (4)
   54    23           0.2570971130           6.9959681118      A1        A1 (1)
   55    24           0.2779243914           7.5627071694      A1        A1 (1)
   56   198           0.2779599694           7.5636752972      B2        B2 (3)
   57    25           0.3543308273           9.6418319911      A1        A1 (1)
   58   122           0.3837649204          10.4427743851      B1        B1 (2)
   59    26           0.3856661139          10.4945084902      A1        A1 (1)
   60   266           0.4195093544          11.4154298837      A2        A2 (4)
   61   199           0.4203861582          11.4392889279      B2        B2 (3)
   62    27           0.4301983744          11.7062929028      A1        A1 (1)
   63   123           0.4346062571          11.8262374913      B1        B1 (2)
   64   124           0.4504545548          12.2574915960      B1        B1 (2)
   65    28           0.4655060995          12.6670649479      A1        A1 (1)
   66   267           0.4803955797          13.0722283030      A2        A2 (4)
   67   200           0.4860636335          13.2264638868      B2        B2 (3)
   68    29           0.5160639560          14.0428141667      A1        A1 (1)
   69   201           0.5332248113          14.5097847782      B2        B2 (3)
   70   125           0.5578534633          15.1799644698      B1        B1 (2)
   71    30           0.5655503377          15.3894070709      A1        A1 (1)
   72   126           0.5787556844          15.7487428244      B1        B1 (2)
   73    31           0.5999625017          16.3258096587      A1        A1 (1)
   74   268           0.6173905119          16.8000499255      A2        A2 (4)
   75    32           0.6438337512          17.5196070507      A1        A1 (1)
   76   202           0.6469518210          17.6044540422      B2        B2 (3)
   77   203           0.6941764680          18.8895020193      B2        B2 (3)
   78   127           0.7161646384          19.4878305535      B1        B1 (2)
   79    33           0.7165669827          19.4987788970      A1        A1 (1)
   80   128           0.7350516158          20.0017713353      B1        B1 (2)
   81   204           0.7582361406          20.6326543299      B2        B2 (3)
   82    34           0.7590553648          20.6549465543      A1        A1 (1)
   83    35           0.7835971514          21.3227625182      A1        A1 (1)
   84   129           0.8229322191          22.3931241265      B1        B1 (2)
   85   205           0.8291280623          22.5617215920      B2        B2 (3)
   86   269           0.8424024693          22.9229365698      A2        A2 (4)
   87    36           0.8514185107          23.1682755284      A1        A1 (1)
   88   270           0.8651529032          23.5420073486      A2        A2 (4)
   89   271           0.8768139367          23.8593202028      A2        A2 (4)
   90   130           0.8806392980          23.9634135753      B1        B1 (2)
   91    37           0.8821190359          24.0036792907      A1        A1 (1)
   92   206           0.8869922612          24.1362864923      B2        B2 (3)
   93    38           0.9050277265          24.6270564538      A1        A1 (1)
   94   207           0.9149993612          24.8983984297      B2        B2 (3)
   95   131           0.9309645612          25.3328336054      B1        B1 (2)
   96   208           0.9357348828          25.4626406561      B2        B2 (3)
   97    39           0.9659702946          26.2853880386      A1        A1 (1)
   98   132           0.9834933376          26.7622142797      B1        B1 (2)
   99   272           0.9933016242          27.0291113281      A2        A2 (4)
  100   133           1.0657643819          29.0009232093      B1        B1 (2)
  101   209           1.0825857982          29.4586572184      B2        B2 (3)
  102    40           1.1066438482          30.1133100410      A1        A1 (1)
  103    41           1.1200076718          30.4769581682      A1        A1 (1)
  104   273           1.1417678983          31.0690840351      A2        A2 (4)
  105    42           1.1436553729          31.1204448284      A1        A1 (1)
  106   210           1.1748101356          31.9682090209      B2        B2 (3)
  107   134           1.2168474017          33.1121011871      B1        B1 (2)
  108   211           1.2606667210          34.3044854859      B2        B2 (3)
  109   135           1.2636219017          34.3849000401      B1        B1 (2)
  110    43           1.2807929465          34.8521479236      A1        A1 (1)
  111    44           1.3455421298          36.6140627740      A1        A1 (1)
  112   212           1.4241771343          38.7538300303      B2        B2 (3)
  113    45           1.4330063502          38.9940852087      A1        A1 (1)
  114   274           1.4388061014          39.1519044647      A2        A2 (4)
  115   136           1.4734410761          40.0943700385      B1        B1 (2)
  116   213           1.5007136918          40.8364956403      B2        B2 (3)
  117    46           1.5028514708          40.8946675654      A1        A1 (1)
  118   137           1.5116513997          41.1341258049      B1        B1 (2)
  119    47           1.6630615330          45.2542049929      A1        A1 (1)
  120   138           1.6885165596          45.9468714817      B1        B1 (2)
  121   275           1.7591179750          47.8680336627      A2        A2 (4)
  122   214           1.7597632875          47.8855935087      B2        B2 (3)
  123    48           1.7674719052          48.0953556613      A1        A1 (1)
  124   276           1.7977359633          48.9188825507      A2        A2 (4)
  125   139           1.8016888987          49.0264473911      B1        B1 (2)
  126    49           1.8273910051          49.7258372618      A1        A1 (1)
  127   140           1.8577067984          50.5507719373      B1        B1 (2)
  128   215           1.8586797711          50.5772478690      B2        B2 (3)
  129   277           1.8594429961          50.5980162786      A2        A2 (4)
  130   216           1.8802977944          51.1655041905      B2        B2 (3)
  131    50           1.8832332150          51.2453810440      A1        A1 (1)
  132    51           1.9984883577          54.3816329218      A1        A1 (1)
  133   217           2.1479273802          58.4480754572      B2        B2 (3)
  134   141           2.1719449641          59.1016271419      B1        B1 (2)
  135    52           2.1905585025          59.6081272720      A1        A1 (1)
  136   218           2.2216520441          60.4542255542      B2        B2 (3)
  137    53           2.2585702144          61.4588200398      A1        A1 (1)
  138   142           2.2641453538          61.6105272944      B1        B1 (2)
  139   278           2.2647828711          61.6278750219      A2        A2 (4)
  140   279           2.3109383699          62.8838299965      A2        A2 (4)
  141   143           2.3314618918          63.4423034193      B1        B1 (2)
  142    54           2.3334893763          63.4974740778      A1        A1 (1)
  143   219           2.3386316088          63.6374013384      B2        B2 (3)
  144   144           2.3775481459          64.6963741488      B1        B1 (2)
  145   280           2.3966249604          65.2154806643      A2        A2 (4)
[...]
   67   200           0.4817361145          13.1087061094      B2        B2 (3)
   68    29           0.5158052784          14.0357751893      A1        A1 (1)
   69   201           0.5306353071          14.4393207878      B2        B2 (3)
   70   125           0.5458238326          14.8526215771      B1        B1 (2)
   71    30           0.5695393966          15.4979548836      A1        A1 (1)
   72   126           0.5791425638          15.7592703474      B1        B1 (2)
   73    31           0.6018118461          16.3761328786      A1        A1 (1)
   74   268           0.6156975689          16.7539826048      A2        A2 (4)
   75    32           0.6582065618          17.9107111086      A1        A1 (1)
   76   202           0.6600276959          17.9602666875      B2        B2 (3)
   77   203           0.6919826212          18.8298044119      B2        B2 (3)
   78   127           0.7196835703          19.5835855571      B1        B1 (2)
   79    33           0.7211007310          19.6221484616      A1        A1 (1)
   80   128           0.7483084594          20.3625083898      B1        B1 (2)
   81   204           0.7718266772          21.0024716307      B2        B2 (3)
   82    34           0.7723069719          21.0155411148      A1        A1 (1)
   83    35           0.7900062509          21.4971629806      A1        A1 (1)
   84   205           0.8232013693          22.4004480745      B2        B2 (3)
   85   129           0.8330377023          22.6681083037      B1        B1 (2)
   86   269           0.8414702615          22.8975699052      A2        A2 (4)
   87    36           0.8471239555          23.0514147395      A1        A1 (1)
   88   270           0.8709531043          23.6998388446      A2        A2 (4)
   89   206           0.8848371777          24.0776436883      B2        B2 (3)
   90   130           0.8864061081          24.1203364550      B1        B1 (2)
   91   271           0.8891255057          24.1943350251      A2        A2 (4)
   92    37           0.8923594003          24.2823337724      A1        A1 (1)
   93    38           0.8993545577          24.4726816832      A1        A1 (1)
   94   207           0.9102773682          24.7699064660      B2        B2 (3)
   95   131           0.9405522475          25.5937278144      B1        B1 (2)
   96   208           0.9476447212          25.7867238342      B2        B2 (3)
   97    39           0.9755336034          26.5456189013      A1        A1 (1)
   98   132           0.9771334675          26.5891534171      B1        B1 (2)
   99   272           1.0076752147          27.4202366107      A2        A2 (4)
  100   133           1.0828577737          29.4660580477      B1        B1 (2)
  101   209           1.0962076968          29.8293279249      B2        B2 (3)
  102    40           1.0965552291          29.8387847570      A1        A1 (1)
  103    41           1.1186632033          30.4403733207      A1        A1 (1)
  104   273           1.1386193454          30.9834075545      A2        A2 (4)
  105    42           1.1570445382          31.4847825403      A1        A1 (1)
  106   210           1.1757964929          31.9950491681      B2        B2 (3)
  107   134           1.1965174588          32.5588953152      B1        B1 (2)
  108   211           1.2751689383          34.6991108809      B2        B2 (3)
  109   135           1.2823312989          34.8940086213      B1        B1 (2)
  110    43           1.3027992704          35.4509704392      A1        A1 (1)
  111    44           1.3455862354          36.6152629481      A1        A1 (1)
  112   212           1.4376399678          39.1201723553      B2        B2 (3)
  113    45           1.4531987792          39.5435491375      A1        A1 (1)
  114   274           1.4645182319          39.8515671039      A2        A2 (4)
  115   136           1.4823536433          40.3368933232      B1        B1 (2)
  116    46           1.5074666949          41.0202541973      A1        A1 (1)
  117   213           1.5076538418          41.0253467233      B2        B2 (3)
  118   137           1.5183716844          41.3169940477      B1        B1 (2)
  119    47           1.6680189033          45.3891018948      A1        A1 (1)
  120   138           1.7007322098          46.2792762206      B1        B1 (2)
  121   275           1.7556314187          47.7731596441      A2        A2 (4)
  122   214           1.7647756848          48.0219877753      B2        B2 (3)
  123    48           1.7983481407          48.9355407430      A1        A1 (1)
  124   276           1.8121887871          49.3121638778      A2        A2 (4)
  125   139           1.8167047818          49.4350503425      B1        B1 (2)
  126    49           1.8391258143          50.0451576531      A1        A1 (1)
  127   140           1.8612543518          50.6473057714      B1        B1 (2)
  128   277           1.8693151190          50.8666503982      A2        A2 (4)
  129   215           1.8722465437          50.9464185204      B2        B2 (3)
  130   216           1.9069516770          51.8907932068      B2        B2 (3)
  131    50           1.9167579085          52.1576343321      A1        A1 (1)
  132    51           2.0173546018          54.8950095243      A1        A1 (1)
  133   217           2.1575820867          58.7107933786      B2        B2 (3)
  134   141           2.1924524196          59.6596633747      B1        B1 (2)
  135    52           2.1988869335          59.8347554016      A1        A1 (1)
  136   218           2.2336921099          60.7818523999      B2        B2 (3)
  137   278           2.2626381995          61.5695155423      A2        A2 (4)
  138   142           2.2707613384          61.7905573894      B1        B1 (2)
  139    53           2.2798002844          62.0365196141      A1        A1 (1)
  140   279           2.3038301287          62.6904049214      A2        A2 (4)
  141   143           2.3259692938          63.2928422297      B1        B1 (2)
  142    54           2.3323454280          63.4663456627      A1        A1 (1)
  143   219           2.3376318084          63.6101953860      B2        B2 (3)
  144   144           2.3743564571          64.6095238837      B1        B1 (2)
  145   280           2.3961567188          65.2027391604      A2        A2 (4)
  146    55           2.3992675353          65.2873887827      A1        A1 (1)
  147   220           2.4007252080          65.3270540736      B2        B2 (3)
  148    56           2.4394433570          66.3806284698      A1        A1 (1)
  149   221           2.4666771389          67.1216973502      B2        B2 (3)
  150   145           2.4732062306          67.2993629680      B1        B1 (2)
  151    57           2.4966219900          67.9365381756      A1        A1 (1)
  152   281           2.5011183755          68.0588910459      A2        A2 (4)
  153   146           2.5094985449          68.2869270479      B1        B1 (2)
  154    58           2.5287734941          68.8114250809      A1        A1 (1)
  155   222           2.5292875452          68.8254131214      B2        B2 (3)
  156    59           2.6587506583          72.3482835289      A1        A1 (1)
  157   147           2.6759040713          72.8150516249      B1        B1 (2)
  158   282           2.7200003104          74.0149712938      A2        A2 (4)
  159    60           2.7413963398          74.5971868538      A1        A1 (1)
  160   223           2.7823777353          75.7123473183      B2        B2 (3)
  161   148           2.7932834928          76.0091080688      B1        B1 (2)
  162    61           2.8241102341          76.8479463443      A1        A1 (1)
  163   224           2.8291347844          76.9846713082      B2        B2 (3)
  164   283           2.8812521351          78.4028565190      A2        A2 (4)
  165   225           2.8847518219          78.4980878409      B2        B2 (3)
  166    62           2.8999944279          78.9128602343      A1        A1 (1)
  167   149           2.9109871327          79.2119869404      B1        B1 (2)
  168    63           2.9177686988          79.3965227351      A1        A1 (1)
  169   226           2.9298855787          79.7262397999      B2        B2 (3)
  170   284           2.9354728569          79.8782773703      A2        A2 (4)
  171   150           2.9425803415          80.0716818571      B1        B1 (2)
  172   227           3.0053090228          81.7786160555      B2        B2 (3)
  173   228           3.0943684007          84.2020449324      B2        B2 (3)
  174    64           3.1258506716          85.0587210755      A1        A1 (1)
  175   285           3.1299240008          85.1695619981      A2        A2 (4)
  176   151           3.1345989994          85.2967751769      B1        B1 (2)
  177   152           3.1379452479          85.3878312295      B1        B1 (2)
  178    65           3.1545392454          85.8393768556      A1        A1 (1)
  179   229           3.1721215000          86.3178143268      B2        B2 (3)
  180   153           3.1962629803          86.9747374032      B1        B1 (2)
  181   286           3.1974777378          87.0077926361      A2        A2 (4)
  182    66           3.2223944133          87.6858098460      A1        A1 (1)
  183   230           3.2503492080          88.4464984837      B2        B2 (3)
  184   154           3.2798455085          89.2491336239      B1        B1 (2)
  185   287           3.2816245318          89.2975433084      A2        A2 (4)
  186    67           3.2984508926          89.7554118649      A1        A1 (1)
  187   288           3.3254073664          90.4889348086      A2        A2 (4)
  188    68           3.3351513619          90.7540824051      A1        A1 (1)
  189   155           3.3575117183          91.3625386365      B1        B1 (2)
  190   156           3.3684882971          91.6612265313      B1        B1 (2)
  191   231           3.3689852425          91.6747491031      B2        B2 (3)
  192   289           3.3720765478          91.7588677950      A2        A2 (4)
  193    69           3.3782133866          91.9258596710      A1        A1 (1)
  194    70           3.4443488923          93.7254982714      A1        A1 (1)
  195   232           3.4549016464          94.0126533094      B2        B2 (3)
  196   290           3.5154310131          95.6597411138      A2        A2 (4)
  197    71           3.5515912276          96.6437105750      A1        A1 (1)
  198   157           3.5620256379          96.9276453122      B1        B1 (2)
  199   233           3.6107300737          98.2529603893      B2        B2 (3)
  200    72           3.6138331950          98.3374006123      A1        A1 (1)
  201   158           3.7367079268         101.6809920495      B1        B1 (2)
  202   234           3.7499451301         102.0411946643      B2        B2 (3)
  203    73           3.7945766134         103.2556790669      A1        A1 (1)
  204   159           3.8420934924         104.5486790791      B1        B1 (2)
  205   291           3.8785458327         105.5405976871      A2        A2 (4)
  206   235           3.8915084110         105.8933273773      B2        B2 (3)
  207    74           3.8988500320         106.0931030409      A1        A1 (1)
  208   160           3.9568677404         107.6718451463      B1        B1 (2)
  209    75           3.9811102109         108.3315163076      A1        A1 (1)
  210    76           4.0568280630         110.3919038095      A1        A1 (1)
  211   236           4.0756754863         110.9047682714      B2        B2 (3)
  212   237           4.0883763498         111.2503763371      B2        B2 (3)
  213   292           4.1050965662         111.7053565567      A2        A2 (4)
  214   161           4.1082309408         111.7906472257      B1        B1 (2)
  215    77           4.1158525352         111.9980413536      A1        A1 (1)
  216   162           4.5740492635         124.4662081986      B1        B1 (2)
  217    78           4.6217215109         125.7634360024      A1        A1 (1)
  218   238           4.6325060071         126.0568970617      B2        B2 (3)
  219    79           4.6370184679         126.1796873619      A1        A1 (1)
  220   293           4.6489118311         126.5033222278      A2        A2 (4)
  221   163           4.6708823186         127.1011695882      B1        B1 (2)
  222   239           4.6736244756         127.1757874744      B2        B2 (3)
  223   294           4.6827402208         127.4238395108      A2        A2 (4)
  224    80           4.8484604252         131.9333155287      A1        A1 (1)
  225   164           4.8769991794         132.7098945110      B1        B1 (2)
  226    81           4.9264991444         134.0568570394      A1        A1 (1)
  227   240           4.9714253427         135.2793610438      B2        B2 (3)
  228    82           5.0448975052         137.2786402276      A1        A1 (1)
  229   241           5.1003405057         138.7873209717      B2        B2 (3)
  230    83           5.1562976826         140.3099931647      A1        A1 (1)
  231   165           5.3434745515         145.4033347081      B1        B1 (2)
  232   166           5.5013205451         149.6985425603      B1        B1 (2)
  233   295           5.5094664208         149.9202031060      A2        A2 (4)
  234   242           5.5096464151         149.9251009996      B2        B2 (3)
  235    84           5.5102683020         149.9420234019      A1        A1 (1)
  236   167           5.5150705977         150.0727005117      B1        B1 (2)
  237   243           5.5382558887         150.7036043549      B2        B2 (3)
  238    85           5.5386778951         150.7150877315      A1        A1 (1)
  239   296           5.5389278014         150.7218880279      A2        A2 (4)
  240   168           5.5463801403         150.9246764797      B1        B1 (2)
  241    86           5.6624910428         154.0842147645      A1        A1 (1)
  242   297           5.7682349260         156.9616521128      A2        A2 (4)
  243   244           5.8566459284         159.3674377954      B2        B2 (3)
  244   169           5.9040860219         160.6583483679      B1        B1 (2)
  245   298           5.9076624105         160.7556668493      A2        A2 (4)
  246    87           5.9205877346         161.1073828003      A1        A1 (1)
  247   299           5.9278842027         161.3059297894      A2        A2 (4)
  248   245           5.9326557039         161.4357689401      B2        B2 (3)
  249    88           5.9395981720         161.6246830994      A1        A1 (1)
  250   170           5.9440080488         161.7446819479      B1        B1 (2)
  251   246           6.0433918416         164.4490524385      B2        B2 (3)
  252    89           6.3643031280         173.1814924911      A1        A1 (1)
  253   300           6.7330763794         183.2163228219      A2        A2 (4)
  254    90           6.7421769511         183.4639619682      A1        A1 (1)
  255   171           6.7424938837         183.4725861419      B1        B1 (2)
  256   247           6.7444155832         183.5248782446      B2        B2 (3)
  257   301           6.7456002817         183.5571155284      A2        A2 (4)
  258   172           6.7617958852         183.9978203053      B1        B1 (2)
  259   302           6.7695554548         184.2089689295      A2        A2 (4)
  260   173           6.7729376473         184.3010030650      B1        B1 (2)
  261   248           6.7789915277         184.4657375246      B2        B2 (3)
  262    91           6.7823069981         184.5559560622      A1        A1 (1)
  263    92           6.8065799943         185.2164578666      A1        A1 (1)
  264   249           6.8152105809         185.4513080682      B2        B2 (3)
  265    93           6.8321223670         185.9115011647      A1        A1 (1)
  266   174           6.8348459882         185.9856146639      B1        B1 (2)
  267   250           6.8742257567         187.0571926430      B2        B2 (3)
  268    94           6.9604469840         189.4033915157      A1        A1 (1)
  269   175           6.9643071431         189.5084317856      B1        B1 (2)
  270   303           6.9947881395         190.3378618659      A2        A2 (4)
  271   251           7.0154782776         190.9008691455      B2        B2 (3)
  272    95           7.0807399812         192.6767303846      A1        A1 (1)
  273    96           7.2620678162         197.6109116234      A1        A1 (1)
  274   176           7.2674457251         197.7572519637      B1        B1 (2)
  275   304           7.2700882204         197.8291579184      A2        A2 (4)
  276   252           7.2725942707         197.8973510128      B2        B2 (3)
  277   305           7.3004842994         198.6562772760      A2        A2 (4)
  278   177           7.3008420682         198.6660126610      B1        B1 (2)
  279    97           7.3017796462         198.6915254547      A1        A1 (1)
  280   253           7.3132880440         199.0046848803      B2        B2 (3)
  281    98           7.4632798592         203.0861696690      A1        A1 (1)
  282   178           7.4943445003         203.9314815295      B1        B1 (2)
  283   254           7.5119375727         204.4102133671      B2        B2 (3)
  284    99           7.5361111096         205.0680087482      A1        A1 (1)
  285   100           7.9813410914         217.1833324848      A1        A1 (1)
  286   101           8.0308101652         218.5294544182      A1        A1 (1)
  287   255           8.0587938963         219.2909304547      B2        B2 (3)
  288   179           8.2482079807         224.4451497266      B1        B1 (2)
  289   256           9.0161593034         245.3421676006      B2        B2 (3)
  290   306           9.0194054271         245.4304991163      A2        A2 (4)
  291   102           9.0264740988         245.6228474526      A1        A1 (1)
  292   180           9.0799776238         247.0787523842      B1        B1 (2)
  293   181           9.1634706190         249.3507122872      B1        B1 (2)
  294   307           9.1645100836         249.3789975583      A2        A2 (4)
  295   103           9.2000697463         250.3466251737      A1        A1 (1)
  296   257           9.2922594595         252.8552348052      B2        B2 (3)
  297   104           9.4433430735         256.9664289507      A1        A1 (1)
  298   182           9.6087827137         261.4682704291      B1        B1 (2)
  299   308           9.6685538753         263.0947264257      A2        A2 (4)
  300   105           9.7683115540         265.8092708659      A1        A1 (1)
  301   258           9.8025472045         266.7408702788      B2        B2 (3)
  302   259          10.0613801495         273.7840727822      B2        B2 (3)
  303   106          10.1803954512         277.0226437853      A1        A1 (1)
  304   183          10.2829122789         279.8122684889      B1        B1 (2)
  305   107          14.5403599593         395.6633096268      A1        A1 (1)
  306   108          14.6051825063         397.4272208059      A1        A1 (1)
  307   260          14.6428072534         398.4510422245      B2        B2 (3)
  308   184          14.9908865359         407.9227610338      B1        B1 (2)


  SCF failed to converge in  500 cycles.

 @CHECKOUT-I, Total execution time (CPU/WALL):     2322.47/     671.74 seconds.
 @CHECKOUT-I, Total execution time (CPU/WALL):     2323.63/     671.77 seconds.

  ERROR ERROR ERROR ERROR ERROR ERROR 
  Job has terminated with error flag 
  ERROR ERROR ERROR ERROR ERROR ERROR 

--executable xvscf finished with status   256 in      671.82 seconds (walltime).
  This computation required                       114357.67 seconds (walltime).
Attempting to clean /scratch/jearias... save is False. TIME: Sat 30 Aug 2025 06:30:57 AM PDT
Total of 114358 seconds elapsed for this process.
