 --invoking executable--
/opt/cfour/2.1/bin/xjoda


   *************************************************************************
         <<<     CCCCCC     CCCCCC   |||     CCCCCC     CCCCCC   >>>
       <<<      CCC        CCC       |||    CCC        CCC         >>>
      <<<      CCC        CCC        |||   CCC        CCC            >>>
    <<<        CCC        CCC        |||   CCC        CCC              >>>
      <<<      CCC        CCC        |||   CCC        CCC            >>>
       <<<      CCC        CCC       |||    CCC        CCC         >>>
         <<<     CCCCCC     CCCCCC   |||     CCCCCC     CCCCCC   >>>
   *************************************************************************

     ****************************************************************
     * CFOUR Coupled-Cluster techniques for Computational Chemistry *
     ****************************************************************


   Department of Chemistry                Institut fuer Physikalische Chemie
   University of Florida                  Universitaet Mainz
   Gainesville, FL 32611, USA             D-55099 Mainz, Germany

   Department of Chemistry                Fakultaet fuer Chemie und Biowiss.
   Johns Hopkins University               Karlsruher Institut fuer Technologie
   Baltimore, MD 21218, USA               D-76131 Karlsruhe, Germany

   Department of Chemistry                Department of Physical Chemistry
   Southern Methodist University          Eotvos Lorand University
   Dallas, TX 75275, USA                  H-1053 Budapest, Hungary


                       Version 2.1

                     node005                                           
                     Mon 01 Sep 2025 02:37:02 PM PDT                   
                     integer*8 version is running

********************************************************************************
*                          Input from ZMAT file                                *
********************************************************************************
Optimization on FeCO4 (C2v), S0                                                 
FE                                                                              
X 1 RDX                                                                         
C 1 RC1* 2 AC1*                                                                 
C 1 RC1* 2 AC1* 3 D180                                                          
C 1 RC2* 2 AC2* 4 D90                                                           
C 1 RC2* 2 AC2* 3 D90                                                           
O 1 RO1* 2 AO1* 4 D180                                                          
O 1 RO1* 2 AO1* 3 D180                                                          
O 1 RO2* 2 AO2* 6 D180                                                          
O 1 RO2* 2 AO2* 5 D180                                                          
                                                                                
RDX  =   1.25                                                                   
RC1  =   1.7819586844                                                           
AC1  =  64.5621141300                                                           
RC2  =   1.8267427424                                                           
AC2  =  91.5929415234                                                           
RO1   =  2.9312114616                                                           
AO1  =  61.6506444384                                                           
RO2   =  2.9728246206                                                           
AO2  =  91.3868604893                                                           
D90  =  90.0                                                                    
D180 = 180.0                                                                    
                                                                                
*ACES2(CALC = CCSD(T)                                                           
      BASIS = SPECIAL                                                           
FROZEN_CORE = ON                                                                
 OCCUPATION = 18-10-10-3                                                        
LOCK_ORBOCC = ON                                                                
SCF_DAMPING = 500                                                               
   SCF_CONV = 9                                                                 
    CC_CONV = 7                                                                 
 LINEQ_CONV = 7                                                                 
   SCF_MAXCYC = 500                                                             
    CC_MAXCYC = 500                                                             
 LINEQ_MAXCYC = 500                                                             
       MEMORY = 32                                                              
     MEM_UNIT = GB)                                                             
                                                                                
Fe:cc-pVTZ                                                                      
C:cc-pVTZ                                                                       
C:cc-pVTZ                                                                       
C:cc-pVTZ                                                                       
C:cc-pVTZ                                                                       
O:cc-pVTZ                                                                       
O:cc-pVTZ                                                                       
O:cc-pVTZ                                                                       
O:cc-pVTZ                                                                       
                                                                                
********************************************************************************
    -------------------------------------------------------------------
                    CFOUR Control Parameters 
    -------------------------------------------------------------------
        External           Internal           Value            Units
          Name               Name
    -------------------------------------------------------------------
       ABCDTYPE             IABCDT         STANDARD    [  0]    ***   
       ANHARMONIC           IANHAR         OFF         [  0]    ***   
       ANH_ALGORIT          IANALG         STANDARD    [  0]    ***   
       ANH_DERIVAT          IANDER         SECOND      [  1]    ***   
       ANH_MODE             ANHMOD         VIBRATION   [  0]    ***   
       ANH_STEPSIZ          ICUBST             50000          x 10-6  
       ANH_SYMMETR          IANHSM         ABELIAN     [  0]    ***   
       AO_LADDERS           IAOLAD         SINGLEPASS  [  1]    ***   
       AV_SCF               IAVSCF         OFF         [  0]    ***   
       BASIS                IBASIS         SPECIAL     [  0]    ***   
       BOTHVECTORS          BOTHVC         OFF         [  0]    ***   
       BOX_POTENT           IPIAB          OFF         [  0]    ***   
       BREIT                IBREIT         OFF         [  0]    ***   
       BRUCK_CONV           IBRTOL          10D-  4             ***   
       BRUECKNER            IBRKNR         OFF         [  0]    ***   
       BUFFERSIZE           IBUFFS              4096            ***   
       CACHE_RECS           ICHREC             10               ***   
       CALCLEVEL            ICLLVL         CCSD(T)     [ 22]    ***   
       CCORBOPT             ICCORB         OFF         [  0]  x 0.01  
       CC_CONV              ICCCNV          10D-  7             ***   
       CC_EXPORDER          ICCEOR              5               ***   
       CC_EXTRAPOL          ICCEXT         DIIS        [  1]    ***   
       CC_GUESS             ICCGES         MP2         [  0]    ***   
       CC_MAXCYC            ICCCYC            500              cycles 
       CC_PROGRAM           ICCPRO         VCC         [  0]    ***   
       CHARGE               ICHRGE              0               ***   
       CHOLESKY             ICHOLE         OFF         [  0]    ***   
       CIS_CONV             ICISTL              5               ***   
       COMM_SIZE            IPSIZE            ***               ***   
       CONSTANT             ICONST         OLD         [  1]    ***   
       CONTINUUM            ICONTU         NONE        [  0]    ***   
       CONTRACTION          ICNTYP         GENERAL     [  1]    ***   
       COORDINATES          ICOORD         INTERNAL    [  0]    ***   
       CPHF_CONVER          ICPHFT          10D- 16             ***   
       CPHF_MAXCYC          ICPHFC             64              cycles 
       CUBIC                ICUBIC         OFF         [  0]    ***   
       CURVILINEAR          ICURVY         OFF         [  0]    ***   
       DBOC                 IDBOC          OFF         [  0]    ***   
       DCT                  IDCT           OFF         [  0]    ***   
       DERIV_LEV            IDRLVL         FIRST       [  1]    ***   
       DEVMEM_SIZE          IDVMEM         *********           MByte  
       DIAG_MRCC            IEOMST          10D-  0             ***   
       DIFF_TYPE            IDIFTY         RELAXED     [  0]    ***   
       DIRECT               IDIRCT         OFF         [  0]    ***   
       DROPMO               IDRPMO      NONE         
       ECP                  IECP           OFF         [  0]    ***   
       EIGENVECTOR          IVEC                1               ***   
       EL_ANHARM            IELANH         OFF         [  0]    ***   
       EOMFOLLOW            IEOMSR         ENERGY      [  0]    ***   
       EOMIP                IEOMIP         OFF         [  0]    ***   
       EOMLEVEL             HBARFM         SAME        [  0]    ***   
       EOM_MRCC             IMRCCE         NEW         [  1]    ***   
       EOM_NONIT            EOMNON         OFF         [  0]    ***   
       EOM_NSING            IEOMSI          10D-  0             ***   
       EOM_NSTATES          IMRCCD         DAVIDSON    [  0]    ***   
       EOM_NTRIP            IEOMTR          10D-  0             ***   
       EOM_ORDER            IEXORD         ENERGY      [  0]    ***   
       EOM_PROPSTA          IEOMST              0               ***   
       ESTATE_CONV          IEXTOL          10D-  5             ***   
       ESTATE_DIAG          IEXDIG         ITERATIVE   [  0]    ***   
       ESTATE_LOCK          IESLOC         ON          [  1]    ***   
       ESTATE_MAXC          IEXMXC             40               ***   
       ESTATE_PROP          IEXPRP         OFF         [  0]    ***   
       EVAL_HESS            IRECAL              0            # of cyc.
       EXCITATION           IEXCIT              0               ***   
       EXCITE               IEXCIT         NONE        [  0]    ***   
       EXTERN_POT           IEXPOT         OFF         [  0]    ***   
       FCGRADNEW            IFCGNW         ON          [  1]    ***   
       FC_FIELD             IFINFC              0             x 10-6  
       FD_CALTYPE           IFDCAL         GRADONLY    [  0]    ***   
       FD_PROJECT           IFDPRJ         OFF         [  1]    ***   
       FD_STEPSIZE          IDISFD              0            10-4 bohr
       FD_USEGROUP          IFDGRP         FULL        [  0]    ***   
       FILE_RECSIZ          IFLREC              4096           words  
       FINITE_PERT          IFIPER              0             x 10-6  
       FIXGEOM              IFIXGM         OFF         [  0]    ***   
       FOCK                 IFOCK          AO          [  1]    ***   
       FREQ_ALGORI          IVIALG         STANDARD    [  0]    ***   
       FROZEN_CORE          IFROCO         ON          [  1]    ***   
       GAMMA_ABCD           IGABCD         STORE       [  0]    ***   
       GAMMA_ABCI           IGABCI         STORE       [  0]    ***   
       GENBAS_1             IGNBS1              0               ***   
       GENBAS_2             IGNBS2              0               ***   
       GENBAS_3             IGNBS3              0               ***   
       GENBAS_4             IGNBS4              0               ***   
       GEO_CONV             ICONTL              5              H/bohr 
       GEO_MAXCYC           IOPTCY             50               ***   
       GEO_MAXSTEP          IMXSTP            300            millibohr
       GEO_METHOD           INR            NR          [  0]    ***   
       GIAO                 IGIAO          OFF         [  1]    ***   
       GIMIC                IGIMIC         OFF         [  0]    ***   
       GRID                 IGRID          OFF         [  0]    ***   
       GRID_ALGO            IGALGO         SERIAL      [  0]    ***   
       GUESS                IGUESS         MOREAD      [  0]    ***   
       HBAR                 IHBAR          OFF         [  0]    ***   
       HESS_TYPE            IHESTP         SCF         [  0]    ***   
       HF2_FILE             IHF2Fl         USE         [  1]    ***   
       HFSTABILITY          ISTABL         OFF         [  0]    ***   
       INCORE               INCORE         OFF         [  0]    ***   
       INPUT_MRCC           IMRCC          ON          [  1]    ***   
       INTEGRALS            INTTYP         VMOL        [  1]    ***   
       JODA_PRINT           IJPRNT              0               ***   
       KEYWORD_OUT          IDMPKW         NO          [  0]    ***   
       LINDEP_TOL           ILINDP              8               ***   
       LINEQ_CONV           IZTACN          10D-  7           cycles  
       LINEQ_EXPOR          ILMAXD              5               ***   
       LINEQ_MAXCY          ILMAXC            500               ***   
       LINEQ_TYPE           ILTYPE         DIIS        [  1]    ***   
       LOCK_ORBOCC          ILOCOC         ON          [  1]    ***   
       MEMORY_SIZE          IMEMSZ         *********           words  
       MEM_UNIT             IMEMU          GB          [  3]    ***   
       MRCC                 IMRCCC         OFF         [  0]    ***   
       MULTIPLICTY          IMULTP              1               ***   
       NACOUPLING           IVCOUP         OFF         [  0]    ***   
       NEGEVAL              IDIE           ABORT       [  0]    ***   
       NEWNORM              INEWNO         OFF         [  0]    ***   
       NON-HF               INONHF         OFF         [  0]    ***   
       NTOP_TAMP            ITOPT2             15               ***   
       NUC_MODEL            INUCMO         POINT       [  0]    ***   
       OCCUPATION           IOCCU   18, 10, 10,  3,
       OPEN-SHELL           IOPEN          SPIN-ORBITAL[  0]    ***   
       OPTVIB               IOPTVB         OFF         [  0]    ***   
       ORBITALS             IORBTP         STANDARD    [  0]    ***   
       PARALLEL             IPARAL         ON          [  1]    ***   
       PARA_INT             IPINTS         ON          [  1]    ***   
       PARA_PRINT           IPPRIN              0               ***   
       PERT_ORB             IPTORB         CANONICAL   [  1]    ***   
       POINTS               IGRDFD              0               ***   
       PRINT                IPRNT               0               ***   
       PROPS                IPROPS         OFF         [  0]    ***   
       PROP_INTEGR          IINTYP         INTERNAL    [  0]    ***   
       PSI                  IPSI           OFF         [  0]    ***   
       QC_ALG               IQCALG         FLM         [  0]    ***   
       QC_LINALG            IQCLIN         TRIDIAG     [  2]    ***   
       QC_MAXCYC            IQCMAX          10D-100           cycles  
       QC_MAXSCFCY          IQCMSC          10D- 15           cycles  
       QC_RTRUST            IQCRTR          10D-  0           x 10-3  
       QC_SKIPSCF           IQCSKI         OFF         [  0]    ***   
       QC_START             IQCSTA          10D-  1             ***   
       QRHFGUESS            IQGUES         OFF         [  0]    ***   
       QUARTIC              IQUART         OFF         [  0]    ***   
       RAMAN_INT            IRAMIN         OFF         [  0]    ***   
       RAMAN_ORB            IRAMRE         UNRELAXED   [  0]    ***   
       RDO                  IRDOFM         ON          [  1]    ***   
       REDUCE_REPR          REDREP         Ir          [  0]    ***   
       REFERENCE            IREFNC         RHF         [  0]    ***   
       RELATIVIST           IRELAT         OFF         [  0]    ***   
       RELAX_DENS           IRDENS         ON          [  1]    ***   
       RESET_FLAGS          IRESET         OFF         [  0]    ***   
       RESTART_CC           ICCRES         OFF         [  0]    ***   
       ROT_EVEC             ROTVEC              0               ***   
       SAVE_INTS            ISVINT         OFF         [  0]    ***   
       SCALE_ON             ISTCRT              0               ***   
       SCF_CONV             ISCFCV          10D-  9             ***   
       SCF_DAMPING          IDAMP             500             x 10-3  
       SCF_EXPORDE          IRPPOR              6               ***   
       SCF_EXPSTAR          IRPPLS              8               ***   
       SCF_EXTRAPO          IRPP           ON          [  1]    ***   
       SCF_MAXCYC           ISCFCY            500              cycles 
       SCF_NOSTOP           ISCFST         OFF         [  0]    ***   
       SCF_PRINT            ISCFPR              0               ***   
       SCF_PROG             ISCFPR         SCF         [  0]    ***   
       SD_FIELD             IFINSD              0             x 10-6  
       SOPERT               IPERSO         OFF         [  0]    ***   
       SPHERICAL            IDFGHI         ON          [  1]    ***   
       SPINORBIT            ISOCAL         OFF         [  0]    ***   
       SPINROTATIO          ISRCON         OFF         [  0]    ***   
       SPIN_FLIP            ISPFLP         OFF         [  0]    ***   
       SPIN_ORBIT           ISPORB         OFF         [  0]    ***   
       SPIN_SCAL            ISCSMP         OFF         [  0]    ***   
       STEEPSCALE           ISTPSC              1000          x 10-3  
       SUBGROUP             ISUBGP         DEFAULT     [  0]    ***   
       SUBGRPAXIS           ISBXYZ         X           [  0]    ***   
       SYMMETRY             ISYM           ON          [  0]    ***   
       SYM_CHECK            ISYMCK         OVERRIDE    [  1]    ***   
       T3_EXTRAPOL          IT3EXT         OFF         [  0]    ***   
       T4_EXTRAPOL          IT4EXP         OFF         [  0]    ***   
       TAMP_SUM             IEVERY              5               ***   
       TESTSUITE            ITESTS         OFF         [  0]    ***   
       THERMOCH             ITHERM         OFF         [  0]    ***   
       TOL_CHOLESK          ITOLCH          10D-  4             ***   
       TRANGRAD             IRESRM         OFF         [  0]    ***   
       TRANS_INV            ITRAIN         USE         [  0]    ***   
       TREAT_PERT           ITREAT         SIMULTANEOUS[  0]    ***   
       TRIP_ALGORI          ITRALG         NORMAL      [  0]    ***   
       UIJ_THRESHO          IUIJTH              1               ***   
       UNITS                IUNITS         ANGSTROM    [  0]    ***   
       UNOS                 IUNOS          OFF         [  0]    ***   
       UPDATE_HESS          IHUPDT         ON          [  1]    ***   
       VIBPHASE             ISETPH         STANDARD    [  0]    ***   
       VIBRATION            IVIB           NO          [  0]    ***   
       VIB_ALGORIT          IGEALG         STANDARD    [  0]    ***   
       VNATORB              IVNORB         OFF         [  0]    ***   
       VTRAN                IVTRAN         FULL/PARTIAL[  0]    ***   
       XFIELD               IXEFLD              0             x 10-6  
       XFORM_TOL            IXFTOL          10D- 11             ***   
       YFIELD               IYEFLD              0             x 10-6  
       ZFIELD               IZEFLD              0             x 10-6  
       ZSCALE_EXP           IZEXPS         OFF         [  0]    ***   
    -------------------------------------------------------------------
  10 entries found in Z-matrix 
   Job Title : Optimization on FeCO4 (C2v), S0                                                 
   There are 11 unique internal coordinates.
   Of these,  8 will be optimized.
   User supplied Z-matrix: 
--------------------------------------------------------------------------------
       SYMBOL    BOND      LENGTH    ANGLE     ANGLE     DIHED     ANGLE
                  TO      (ANGST)    WRT      (DEG)      WRT      (DEG)
--------------------------------------------------------------------------------
        FE   
        X          1         RDX  
        C          1         RC1        2        AC1  
        C          1         RC1        2        AC1        3        D180 
        C          1         RC2        2        AC2        4        D90  
        C          1         RC2        2        AC2        3        D90  
        O          1         RO1        2        AO1        4        D180 
        O          1         RO1        2        AO1        3        D180 
        O          1         RO2        2        AO2        6        D180 
        O          1         RO2        2        AO2        5        D180 
                  *Initial values for internal coordinates* 
                      Name             Value
                        RDX             1.2500000000
                        RC1             1.7819586844
                        AC1            64.5621141300
                        D180          180.0000000000
                        RC2             1.8267427424
                        AC2            91.5929415234
                        D90            90.0000000000
                        RO1             2.9312114616
                        AO1            61.6506444384
                        RO2             2.9728246206
                        AO2            91.3868604893
--------------------------------------------------------------------------------
  filter applied 
  filter applied 
   Rotational constants (in cm-1): 
          0.0264389010             0.0403443791             0.0510376638
   Rotational constants (in MHz): 
        792.6184231379          1209.4942257580          1530.0708823364
********************************************************************************
   The full molecular point group is C2v .
   The largest Abelian subgroup of the full molecular point group is C2v .
   The computational point group is C2v .
********************************************************************************
--------------------------------------------------------------------------------
   Analysis of internal coordinates specified by Z-matrix 
--------------------------------------------------------------------------------
   *The nuclear repulsion energy is  586.841455089594092 a.u.
   *There are   8 degrees of freedom within the tot. symm. molecular subspace.
   *Z-matrix requests optimization of   8 coordinates.
   *The optimization is unconstrained and your Z-matrix is great.
--------------------------------------------------------------------------------


 ----------------------------------------------------------------
         Coordinates used in calculation (QCOMP) 
 ----------------------------------------------------------------
 Z-matrix   Atomic            Coordinates (in bohr)
  Symbol    Number           X              Y              Z
 ----------------------------------------------------------------
     FE       26         0.00000000     0.00000000    -0.66821442
     X         0         0.00000000     0.00000000     1.69394373
     C         6        -0.00000000    -3.04094869     0.77819909
     C         6         0.00000000     3.04094869     0.77819909
     C         6         3.45071015    -0.00000000    -0.76417605
     C         6        -3.45071015     0.00000000    -0.76417605
     O         8        -0.00000000    -4.87486568     1.96204958
     O         8         0.00000000     4.87486568     1.96204958
     O         8         5.61617988    -0.00000000    -0.80418219
     O         8        -5.61617988     0.00000000    -0.80418219
 ----------------------------------------------------------------

   Interatomic distance matrix (Angstroms) 

                 FE            X             C             C             C    
                [ 1]        [ 2]        [ 3]        [ 4]        [ 5]
  FE   [ 1]     0.00000
  X    [ 2]     1.25000     0.00000
  C    [ 3]     1.78196     1.68058     0.00000
  C    [ 4]     1.78196     1.68058     3.21840     0.00000
  C    [ 5]     1.82674     2.24197     2.56712     2.56712     0.00000
  C    [ 6]     1.82674     2.24197     2.56712     2.56712     3.65207
  O    [ 7]     2.93121     2.58357     1.15510     4.23546     3.47424
  O    [ 8]     2.93121     2.58357     4.23546     1.15510     3.47424
  O    [ 9]     2.97283     3.25270     3.48184     3.48184     1.14611
  O    [10]     2.97283     3.25270     3.48184     3.48184     4.79804

                 C             O             O             O             O    
                [ 6]        [ 7]        [ 8]        [ 9]        [10]
  C    [ 6]     0.00000
  O    [ 7]     3.47424     0.00000
  O    [ 8]     3.47424     5.15934     0.00000
  O    [ 9]     4.79804     4.19881     4.19881     0.00000
  O    [10]     1.14611     4.19881     4.19881     5.94391     0.00000
 rotcon2
   Rotational constants (in cm-1): 
          0.0510376638             0.0403443791             0.0264389010
   Rotational constants (in MHz): 
       1530.0708823364          1209.4942257580           792.6184231379
  ECPDATA file not present.   Using default ECPDATA. 
  There are  17 frozen-core orbitals.
  There are  308 basis functions.
 @CHECKOUT-I, Total execution time (CPU/WALL):        2.11/       0.60 seconds.
--executable xjoda finished with status     0 in        0.64 seconds (walltime).
 --invoking executable--
/opt/cfour/2.1/bin/xvmol
 SERIAL VERSION OF MOLECULE STARTED
********************************************************************************
                    INPUT FROM MOL FILE
********************************************************************************
INTGRL        1    0    1    0    0    0    0    0    0                         
         *** CFOUR Program System (Release V0.1) ***                            
Optimization on FeCO4 (C2v), S0                                                 
    5    2 X  Y       0.10E-08              0    0                              
   9999.00      3.00                                                            
         26.00000000    1    5    1    1    1    1    1                         
FE#1   0.000000000000000   0.000000000000000  -0.668214422050818                
   20    7                                                                      
   4316265.0000000000        8.0488029999999998E-006  -4.1559539999999997E-006  
   646342.40000000002        6.2583059999999998E-005  -3.2314010000000003E-005  
   147089.70000000001        3.2902389999999999E-004  -1.6995250000000000E-004  
   41661.519999999997        1.3873550000000001E-003  -7.1713690000000004E-004  
   13590.770000000000        5.0232560000000002E-003  -2.6036250000000000E-003  
   4905.7500000000000        1.6101399999999998E-002  -8.3991090000000001E-003  
   1912.7460000000001        4.5900339999999998E-002  -2.4341089999999999E-002  
   792.60429999999997       0.11361540000000001       -6.2519480000000002E-002  
   344.80650000000003       0.22838690000000000      -0.13659289999999999       
   155.89990000000000       0.32211590000000001      -0.23127070000000000       
   72.230909999999994       0.23836610000000000      -0.23837340000000001       
   32.725059999999999        7.4046669999999995E-002   3.1238370000000001E-002  
   15.667619999999999        9.2141970000000004E-002  0.50868179999999996      -
   7.5034830000000001        9.3397900000000006E-002  0.49876949999999998      -
   3.3122229999999999        1.5739650000000001E-002   9.0335520000000002E-002  
   1.5584709999999999       -4.1866819999999998E-004  -6.0053370000000003E-003  
  0.68391400000000002        5.3763179999999999E-005   2.3124539999999999E-004  
  0.14675700000000000       -3.8166539999999997E-005  -5.6436799999999999E-004  
   7.0583000000000007E-002   4.3196030000000000E-005   4.9922599999999997E-004  
   3.1448999999999998E-002  -3.4010190000000000E-006  -1.0152930000000000E-004  
   16    6                                                                      
   17745.689999999999        4.1000000000000000E-005  -1.5000000000000000E-005  
   4200.7209999999995        3.6900000000000002E-004  -1.2999999999999999E-004  
   1364.4290000000001        2.1289999999999998E-003  -7.5100000000000004E-004  
   522.08060000000000        9.3690000000000006E-003  -3.3289999999999999E-003  
   221.45949999999999        3.3097000000000001E-002  -1.1912000000000001E-002  
   100.90960000000000        9.4431000000000001E-002  -3.4932999999999999E-002  
   48.401150000000001       0.20807700000000001       -7.9989000000000005E-002  
   23.985360000000000       0.33233299999999999      -0.13463600000000001       
   12.182499999999999       0.33298699999999998      -0.13859800000000000       
   6.2422979999999999       0.15684300000000001        3.0277999999999999E-002  
   3.1109439999999999        2.1548999999999999E-002  0.33321600000000001      -
   1.5099579999999999       -2.0950000000000001E-003  0.45615299999999998      -
  0.71084499999999995       -1.7390000000000001E-003  0.28505100000000000       
  0.27318999999999999       -2.9999999999999997E-004   4.6143999999999998E-002  
  0.10423300000000001        2.9000000000000000E-005  -3.2490000000000002E-003 -
   3.8290999999999999E-002  -1.1000000000000000E-005   1.3569999999999999E-003 -
    8    4                                                                      
   113.34399999999999        3.5300000000000002E-003  -3.8899999999999998E-003  
   33.641399999999997        2.5784000000000001E-002  -2.8441999999999999E-002  
   12.331000000000000        9.9118999999999999E-002 -0.11242900000000000       
   4.9947800000000004       0.23907300000000001      -0.27425699999999997       
   2.0728000000000000       0.35719899999999999      -0.31554599999999999       
  0.83075299999999996       0.36218800000000001        5.7109000000000000E-002 -
  0.30917800000000001       0.23646100000000000       0.56360399999999999       
  0.10013000000000000        6.0117999999999998E-002  0.38463700000000001       
    2    2                                                                      
   3.2757999999999998        1.0000000000000000        0.0000000000000000       
  0.79200000000000004        0.0000000000000000        1.0000000000000000       
    1    1                                                                      
   2.0897000000000001        1.0000000000000000                                 
          6.00000000    1    4    1    1    1    1                              
C #2  -0.000000000000001  -3.040948688281154   0.778199094243584                
   10    4                                                                      
   8236.0000000000000        5.3100000000000000E-004   0.0000000000000000       
   1235.0000000000000        4.1079999999999997E-003   0.0000000000000000       
   280.80000000000001        2.1087000000000002E-002   0.0000000000000000       
   79.269999999999996        8.1852999999999995E-002   0.0000000000000000       
   25.590000000000000       0.23481700000000000        0.0000000000000000       
   8.9969999999999999       0.43440099999999998        0.0000000000000000      -
   3.3190000000000000       0.34612900000000002        0.0000000000000000      -
  0.90590000000000004        3.9378000000000003E-002   1.0000000000000000       
  0.36430000000000001       -8.9829999999999997E-003   0.0000000000000000       
  0.12850000000000000        2.3850000000000000E-003   0.0000000000000000       
    5    3                                                                      
   18.710000000000001        0.0000000000000000        1.4031000000000000E-002  
   4.1330000000000000        0.0000000000000000        8.6865999999999999E-002  
   1.2000000000000000        0.0000000000000000       0.29021599999999997       
  0.38269999999999998        1.0000000000000000       0.50100800000000001       
  0.12089999999999999        0.0000000000000000       0.34340599999999999       
    2    2                                                                      
   1.0970000000000000        1.0000000000000000        0.0000000000000000       
  0.31800000000000000        0.0000000000000000        1.0000000000000000       
    1    1                                                                      
  0.76100000000000001        1.0000000000000000                                 
          6.00000000    1    4    1    1    1    1                              
C #3   3.450710154682991  -0.000000000000001  -0.764176048376090                
   10    4                                                                      
   8236.0000000000000        5.3100000000000000E-004   0.0000000000000000       
   1235.0000000000000        4.1079999999999997E-003   0.0000000000000000       
   280.80000000000001        2.1087000000000002E-002   0.0000000000000000       
   79.269999999999996        8.1852999999999995E-002   0.0000000000000000       
   25.590000000000000       0.23481700000000000        0.0000000000000000       
   8.9969999999999999       0.43440099999999998        0.0000000000000000      -
   3.3190000000000000       0.34612900000000002        0.0000000000000000      -
  0.90590000000000004        3.9378000000000003E-002   1.0000000000000000       
  0.36430000000000001       -8.9829999999999997E-003   0.0000000000000000       
  0.12850000000000000        2.3850000000000000E-003   0.0000000000000000       
    5    3                                                                      
   18.710000000000001        0.0000000000000000        1.4031000000000000E-002  
   4.1330000000000000        0.0000000000000000        8.6865999999999999E-002  
   1.2000000000000000        0.0000000000000000       0.29021599999999997       
  0.38269999999999998        1.0000000000000000       0.50100800000000001       
  0.12089999999999999        0.0000000000000000       0.34340599999999999       
    2    2                                                                      
   1.0970000000000000        1.0000000000000000        0.0000000000000000       
  0.31800000000000000        0.0000000000000000        1.0000000000000000       
    1    1                                                                      
  0.76100000000000001        1.0000000000000000                                 
          8.00000000    1    4    1    1    1    1                              
O #4  -0.000000000000001  -4.874865677798907   1.962049581621063                
   10    4                                                                      
   15330.000000000000        5.0799999999999999E-004   0.0000000000000000       
   2299.0000000000000        3.9290000000000002E-003   0.0000000000000000       
   522.39999999999998        2.0243000000000001E-002   0.0000000000000000       
   147.30000000000001        7.9181000000000001E-002   0.0000000000000000       
   47.549999999999997       0.23068700000000000        0.0000000000000000       
   16.760000000000002       0.43311800000000000        0.0000000000000000      -
   6.2069999999999999       0.35026000000000002        0.0000000000000000      -
   1.7520000000000000        4.2728000000000002E-002   1.0000000000000000       
  0.68820000000000003       -8.1539999999999998E-003   0.0000000000000000       
  0.23840000000000000        2.3809999999999999E-003   0.0000000000000000       
    5    3                                                                      
   34.460000000000001        0.0000000000000000        1.5928000000000001E-002  
   7.7489999999999997        0.0000000000000000        9.9739999999999995E-002  
   2.2799999999999998        0.0000000000000000       0.31049199999999999       
  0.71560000000000001        1.0000000000000000       0.49102600000000002       
  0.21400000000000000        0.0000000000000000       0.33633700000000000       
    2    2                                                                      
   2.3140000000000001        1.0000000000000000        0.0000000000000000       
  0.64500000000000002        0.0000000000000000        1.0000000000000000       
    1    1                                                                      
   1.4279999999999999        1.0000000000000000                                 
          8.00000000    1    4    1    1    1    1                              
O #5   5.616179877374501  -0.000000000000001  -0.804182193991959                
   10    4                                                                      
   15330.000000000000        5.0799999999999999E-004   0.0000000000000000       
   2299.0000000000000        3.9290000000000002E-003   0.0000000000000000       
   522.39999999999998        2.0243000000000001E-002   0.0000000000000000       
   147.30000000000001        7.9181000000000001E-002   0.0000000000000000       
   47.549999999999997       0.23068700000000000        0.0000000000000000       
   16.760000000000002       0.43311800000000000        0.0000000000000000      -
   6.2069999999999999       0.35026000000000002        0.0000000000000000      -
   1.7520000000000000        4.2728000000000002E-002   1.0000000000000000       
  0.68820000000000003       -8.1539999999999998E-003   0.0000000000000000       
  0.23840000000000000        2.3809999999999999E-003   0.0000000000000000       
    5    3                                                                      
   34.460000000000001        0.0000000000000000        1.5928000000000001E-002  
   7.7489999999999997        0.0000000000000000        9.9739999999999995E-002  
   2.2799999999999998        0.0000000000000000       0.31049199999999999       
  0.71560000000000001        1.0000000000000000       0.49102600000000002       
  0.21400000000000000        0.0000000000000000       0.33633700000000000       

Running with 32 threads/proc

    2    2                                                                      
   2.3140000000000001        1.0000000000000000        0.0000000000000000       
  0.64500000000000002        0.0000000000000000        1.0000000000000000       
    1    1                                                                      
   1.4279999999999999        1.0000000000000000                                 
FINISH                                                                          

********************************************************************************
 ONE- AND TWO-ELECTRON INTEGRALS OVER SYMMETRY-ADAPTED AOS ARE CALCULATED.

  SPHERICAL HARMONICS ARE USED.
  
  INTEGRALS LESS THAN  0.10E-13 ARE NEGLECTED.

  NUCLEAR REPULSION ENERGY :  586.8414550896 A.U.
  @MOLECU-I, ONE ELECTRON INTEGRALS (CPU/WALL):        2.30/       0.15 SECONDS.
  @TWOEL-I,   24934997 INTEGRALS OF SYMMETRY TYPE  I I I I
  @TWOEL-I,  102489748 INTEGRALS OF SYMMETRY TYPE  I J I J
  @TWOEL-I,   52975023 INTEGRALS OF SYMMETRY TYPE  I I J J
  @TWOEL-I,   82602993 INTEGRALS OF SYMMETRY TYPE  I J K L
  @TWOEL-I, TOTAL NUMBER OF 2-E INTEGRALS  263002761.
  @MOLECU-I, TWO ELECTRON INTEGRALS (CPU/WALL):     3536.94/     151.13 SECONDS.
 @CHECKOUT-I, Total execution time (CPU/WALL):     3539.43/     151.29 seconds.
--executable xvmol finished with status     0 in      151.32 seconds (walltime).
 --invoking executable--
/opt/cfour/2.1/bin/xvmol2ja
 @GETMEM-I,  Allocated   30517 MB of main memory.
 @CHECKOUT-I, Total execution time (CPU/WALL):        0.47/       0.02 seconds.
--executable xvmol2ja finished with status     0 in        0.05 seconds (walltime).
 --invoking executable--
/opt/cfour/2.1/bin/xvscf
  There are  308 functions in the AO basis.

  There are 4 irreducible representations.

       Irrep        # of functions
         1                108
         2                 76
         3                 76
         4                 48


  Parameters for SCF calculation: 
        SCF reference function:  RHF  
  Maximum number of iterations:  500
     Full symmetry point group: C2v 
     Computational point group: C2v 
        Initial density matrix: MOREAD                 
     SCF convergence tolerance: 10**(- 9)
  DIIS convergence acceleration:  ON
          Latest start for DIIS:   8
                     DIIS order:   6

     Alpha population by irrep:  18   10   10    3
      Beta population by irrep:  18   10   10    3


  Memory information:    4323368 words required.
  Fock matrices are constructed from AO integral file.
 @GETMEM-I,  Allocated      32 MB of main memory.
  Initialization and symmetry analysis required      0.015 seconds.

 total no. of electrons in initial guess :   0.0000000000000000     
  --------------------------------------------------------------------
  Iteration         Total Energy            Largest Density Difference
  --------------------------------------------------------------------
       0           586.841455089593865              0.0000000000D+00
   current occupation vector 
    18 10 10  3
    18 10 10  3
  applying damping factor of   0.50000000000000000     
       1          -800.255525006376274              0.2888207883D+04
   current occupation vector 
    18 10 10  3
    18 10 10  3
  applying damping factor of   0.50000000000000000     
       2         -1296.902330512170238              0.1422790841D+04
   current occupation vector 
    18 10 10  3
    18 10 10  3
  applying damping factor of   0.50000000000000000     
       3         -1495.748473836145649              0.6116277067D+03
   current occupation vector 
    18 10 10  3
    18 10 10  3
  applying damping factor of   0.50000000000000000     
       4         -1589.896681619308083              0.2760340296D+03
   current occupation vector 
    18 10 10  3
    18 10 10  3
  applying damping factor of   0.50000000000000000     
       5         -1636.922370367823760              0.2675815142D+03
   current occupation vector 
    18 10 10  3
    18 10 10  3
  applying damping factor of   0.50000000000000000     
       6         -1659.399865460688716              0.1505771880D+03
   current occupation vector 
    18 10 10  3
    18 10 10  3
  applying damping factor of   0.50000000000000000     
       7         -1673.883386282324182              0.1686096771D+03
   current occupation vector 
    18 10 10  3
    18 10 10  3
       8         -1644.701581237682831              0.1294070712D+03
   current occupation vector 
    18 10 10  3
    18 10 10  3
       9         -1702.174753517073668              0.2093177437D+03
   current occupation vector 
    18 10 10  3
    18 10 10  3
      10         -1698.661029250385354              0.9339804824D+00
   current occupation vector 
    18 10 10  3
    18 10 10  3
      11         -1695.112078643484210              0.1004391518D+01
   current occupation vector 
    18 10 10  3
    18 10 10  3
      12         -1700.065237245323942              0.1558791747D+01
   current occupation vector 
    18 10 10  3
    18 10 10  3
      13         -1699.967666852218599              0.2517074995D+01
   current occupation vector 
    18 10 10  3
    18 10 10  3
      14         -1705.561957120875604              0.2644075098D+01
   current occupation vector 
    18 10 10  3
    18 10 10  3
      15         -1710.341654923171291              0.1049866432D+01
   current occupation vector 
    18 10 10  3
    18 10 10  3
      16         -1711.828122137311993              0.3250773593D+00
   current occupation vector 
    18 10 10  3
    18 10 10  3
      17         -1712.840093151745123              0.3754124745D+00
   current occupation vector 
    18 10 10  3
    18 10 10  3
      18         -1713.260288058855849              0.3000008579D+00
   current occupation vector 
    18 10 10  3
    18 10 10  3
      19         -1713.318128200421370              0.1198533623D+00
   current occupation vector 
    18 10 10  3
    18 10 10  3
      20         -1713.324312402611895              0.4466197072D-01
   current occupation vector 
    18 10 10  3
    18 10 10  3
      21         -1713.325682650856152              0.1964740333D-01
   current occupation vector 
    18 10 10  3
    18 10 10  3
      22         -1713.326413501320303              0.2607840731D-01
   current occupation vector 
    18 10 10  3
    18 10 10  3
      23         -1713.327178665299243              0.2467533047D-01
   current occupation vector 
    18 10 10  3
    18 10 10  3
      24         -1713.327713389282280              0.2552719961D-01
   current occupation vector 
    18 10 10  3
    18 10 10  3
      25         -1713.328509294182140              0.5298014970D-01
   current occupation vector 
    18 10 10  3
    18 10 10  3
      26         -1713.328818692024697              0.3918252820D-01
   current occupation vector 
    18 10 10  3
    18 10 10  3
      27         -1713.328856079340994              0.4466263623D-02
   current occupation vector 
    18 10 10  3
    18 10 10  3
      28         -1713.328883462188742              0.1020662774D-01
   current occupation vector 
    18 10 10  3
    18 10 10  3
      29         -1713.328891986440567              0.2617795671D-02
   current occupation vector 
    18 10 10  3
    18 10 10  3
      30         -1713.328898183347292              0.3163567642D-02
   current occupation vector 
    18 10 10  3
    18 10 10  3
      31         -1713.328904327058581              0.3640947883D-02
   current occupation vector 
    18 10 10  3
    18 10 10  3
      32         -1713.328908323778478              0.3793143858D-02
   current occupation vector 
    18 10 10  3
    18 10 10  3
      33         -1713.328910313146253              0.3172360194D-02
   current occupation vector 
    18 10 10  3
    18 10 10  3
      34         -1713.328910653326375              0.9434673686D-03
   current occupation vector 
    18 10 10  3
    18 10 10  3
      35         -1713.328910731721180              0.4175127589D-03
   current occupation vector 
    18 10 10  3
    18 10 10  3
      36         -1713.328910807619422              0.6147460006D-03
   current occupation vector 
    18 10 10  3
    18 10 10  3
      37         -1713.328910812655749              0.9632277214D-04
   current occupation vector 
    18 10 10  3
    18 10 10  3
      38         -1713.328910815255085              0.7404089727D-04
   current occupation vector 
    18 10 10  3
    18 10 10  3
      39         -1713.328910816632515              0.3519594406D-04
   current occupation vector 
    18 10 10  3
    18 10 10  3
      40         -1713.328910817782571              0.6410806515D-04
   current occupation vector 
    18 10 10  3
    18 10 10  3
      41         -1713.328910818989470              0.4214892929D-04
   current occupation vector 
    18 10 10  3
    18 10 10  3
      42         -1713.328910819355087              0.2938671245D-04
   current occupation vector 
    18 10 10  3
    18 10 10  3
      43         -1713.328910820054489              0.4777288627D-04
   current occupation vector 
    18 10 10  3
    18 10 10  3
      44         -1713.328910820389183              0.3530408787D-04
   current occupation vector 
    18 10 10  3
    18 10 10  3
      45         -1713.328910820512419              0.2711517319D-04
   current occupation vector 
    18 10 10  3
    18 10 10  3
      46         -1713.328910820544706              0.7937873303D-05
   current occupation vector 
    18 10 10  3
    18 10 10  3
      47         -1713.328910820535611              0.5017672457D-05
   current occupation vector 
    18 10 10  3
    18 10 10  3
      48         -1713.328910820530155              0.2283578041D-05
   current occupation vector 
    18 10 10  3
    18 10 10  3
      49         -1713.328910820512419              0.1741075787D-05
   current occupation vector 
    18 10 10  3
    18 10 10  3
      50         -1713.328910820546071              0.8696641515D-06
   current occupation vector 
    18 10 10  3
    18 10 10  3
      51         -1713.328910820533793              0.6061478852D-06
   current occupation vector 
    18 10 10  3
    18 10 10  3
      52         -1713.328910820544252              0.6184732448D-06
   current occupation vector 
    18 10 10  3
    18 10 10  3
      53         -1713.328910820529700              0.1901673107D-06
   current occupation vector 
    18 10 10  3
    18 10 10  3
      54         -1713.328910820529245              0.3477680344D-07
   current occupation vector 
    18 10 10  3
    18 10 10  3
      55         -1713.328910820541068              0.7359061438D-07
   current occupation vector 
    18 10 10  3
    18 10 10  3
      56         -1713.328910820529700              0.5199894043D-07
   current occupation vector 
    18 10 10  3
    18 10 10  3
      57         -1713.328910820529700              0.1999224813D-07
   current occupation vector 
    18 10 10  3
    18 10 10  3
      58         -1713.328910820532883              0.4802295311D-07
   current occupation vector 
    18 10 10  3
    18 10 10  3
      59         -1713.328910820543797              0.3675760230D-07
   current occupation vector 
    18 10 10  3
    18 10 10  3
      60         -1713.328910820539704              0.1245988185D-07
   current occupation vector 
    18 10 10  3
    18 10 10  3
      61         -1713.328910820546071              0.1821196149D-07
   current occupation vector 
    18 10 10  3
    18 10 10  3
      62         -1713.328910820539249              0.7599652019D-08
   current occupation vector 
    18 10 10  3
    18 10 10  3
      63         -1713.328910820538795              0.2104451879D-07
   current occupation vector 
    18 10 10  3
    18 10 10  3
      64         -1713.328910820532883              0.1104240988D-07
   current occupation vector 
    18 10 10  3
    18 10 10  3
      65         -1713.328910820521969              0.4553788679D-08
   current occupation vector 
    18 10 10  3
    18 10 10  3
      66         -1713.328910820553347              0.1454984355D-08
   current occupation vector 
    18 10 10  3
    18 10 10  3
      67         -1713.328910820550618              0.6601553970D-08
   current occupation vector 
    18 10 10  3
    18 10 10  3
      68         -1713.328910820516967              0.6180990830D-08
   current occupation vector 
    18 10 10  3
    18 10 10  3
      69         -1713.328910820536521              0.2220934173D-08
   current occupation vector 
    18 10 10  3
    18 10 10  3
      70         -1713.328910820534702              0.2011610434D-08
   current occupation vector 
    18 10 10  3
    18 10 10  3
      71         -1713.328910820550163              0.2458677262D-08
   current occupation vector 
    18 10 10  3
    18 10 10  3
      72         -1713.328910820521060              0.4567913603D-08
   current occupation vector 
    18 10 10  3
    18 10 10  3

  SCF has converged.

 Density matrix saved to file den.dat
 total electron number:   81.999999999999943     
     E(SCF)=     -1713.328910820528336              0.7436211646D-09

  Eigenvector printing suppressed.

 @PUTMOS-I, Writing converged MOs to NEWMOS. 
 @PUTMOS-I, Symmetry   1 Full Blocks 27 Partial Blocksize   0
 @PUTMOS-I, Symmetry   2 Full Blocks 19 Partial Blocksize   0
 @PUTMOS-I, Symmetry   3 Full Blocks 19 Partial Blocksize   0
 @PUTMOS-I, Symmetry   4 Full Blocks 12 Partial Blocksize   0
 @PUTFOCK-I, Writing converged Fock matrix to NEWFOCK. 
 @PUTFOCK-I, Symmetry   1 Full Blocks 27 Partial Blocksize   0
 @PUTFOCK-I, Symmetry   2 Full Blocks 19 Partial Blocksize   0
 @PUTFOCK-I, Symmetry   3 Full Blocks 19 Partial Blocksize   0
 @PUTFOCK-I, Symmetry   4 Full Blocks 12 Partial Blocksize   0



  ORBITAL EIGENVALUES (ALPHA)  (1H = 27.2113834 eV)

       MO #        E(hartree)               E(eV)           FULLSYM    COMPSYM
       ----   --------------------   --------------------   -------   ---------
    1     1        -261.3080298022       -7110.5529844475      A1        A1 (1)
    2     2         -31.8798636562        -867.4951926895      A1        A1 (1)
    3   109         -27.3704396776        -744.7875278929      B1        B1 (2)
    4   185         -27.3589266364        -744.4742421161      B2        B2 (3)
    5     3         -27.3471994320        -744.1551286601      A1        A1 (1)
    6   110         -20.6762985469        -562.6306870523      E         B1 (2)
    7     4         -20.6762981771        -562.6306769906      E         A1 (1)
    8   186         -20.6424023823        -561.7083255216      E         B2 (3)
    9     5         -20.6424022677        -561.7083224024      E         A1 (1)
   10   111         -11.3931420736        -310.0231570943      E         B1 (2)
   11     6         -11.3931409223        -310.0231257682      E         A1 (1)
   12   187         -11.3714856698        -309.4338563873      E         B2 (3)
   13     7         -11.3714849596        -309.4338370624      E         A1 (1)
   14     8          -4.0810419199        -111.0507963534      A1        A1 (1)
   15   112          -2.6752148837         -72.7962978783      B1        B1 (2)
   16   188          -2.6680153524         -72.6003886702      B2        B2 (3)
   17     9          -2.6494488299         -72.0951679093      A1        A1 (1)
   18    10          -1.5225070772         -41.4295238058      A1        A1 (1)
   19   113          -1.5223932060         -41.4264252131      B1        B1 (2)
   20    11          -1.4876979571         -40.4823194943      A1        A1 (1)
   21   189          -1.4875633722         -40.4786572540      B2        B2 (3)
   22    12          -0.8444198528         -22.9778323662      A1        A1 (1)
   23   114          -0.8200899307         -22.3157815267      B1        B1 (2)
   24    13          -0.7964017811         -21.6711942067      A1        A1 (1)
   25   190          -0.7943533404         -21.6154533001      B2        B2 (3)
   26    14          -0.7115960342         -19.3635125135      A1        A1 (1)
   27   261          -0.6666272945         -18.1398508944      A2        A2 (4)
   28   191          -0.6622574536         -18.0209414787      B2        B2 (3)
   29   115          -0.6592114071         -17.9380543389      B1        B1 (2)
   30    15          -0.6502977223         -17.6955006464      A1        A1 (1)
   31   116          -0.6484509911         -17.6452485338      B1        B1 (2)
   32   192          -0.6289009501         -17.1132648730      B2        B2 (3)
   33    16          -0.6282217868         -17.0947838998      A1        A1 (1)
   34   262          -0.6195579202         -16.8590281047      A2        A2 (4)
   35   193          -0.6101935170         -16.6042097399      B2        B2 (3)
   36    17          -0.5987611166         -16.2931183084      A1        A1 (1)
   37   117          -0.5971935074         -16.2504614942      B1        B1 (2)
   38   118          -0.4305225138         -11.7151131850      B1        B1 (2)
   39   263          -0.4265010012         -11.6056822652      A2        A2 (4)
   40    18          -0.3524425493          -9.5904493343      A1        A1 (1)
   41   194          -0.3339022432          -9.0859419583      B2        B2 (3)
  +++++++++++++++++++++++++++++++++++++++++++++++++++++++++++++++++++++++++++++
   42    19           0.0082391333           0.2241982164      A1        A1 (1)
   43    20           0.0774867377           2.1085213284      A1        A1 (1)
   44   195           0.1017648121           2.7691613175      B2        B2 (3)
   45   119           0.1027899126           2.7970557225      B1        B1 (2)
   46   264           0.1178489001           3.2068316045      A2        A2 (4)
   47    21           0.1210298473           3.2933895782      A1        A1 (1)
   48   120           0.1288501377           3.5061904973      B1        B1 (2)
   49   196           0.1318170604           3.5869245700      B2        B2 (3)
   50    22           0.1576791937           4.2906689944      A1        A1 (1)
   51   121           0.1746581635           4.7526902518      B1        B1 (2)
   52   197           0.1790522661           4.8722598628      B2        B2 (3)
   53   265           0.2251925623           6.1278011527      A2        A2 (4)
   54    23           0.2614739457           7.1150677847      A1        A1 (1)
   55    24           0.2737729842           7.4497416380      A1        A1 (1)
   56   198           0.2842392341           7.7345427767      B2        B2 (3)
   57    25           0.3533353643           9.6147440663      A1        A1 (1)
   58    26           0.3884466397          10.5701704429      A1        A1 (1)
   59   122           0.3938023737          10.7159073743      B1        B1 (2)
   60   199           0.4218383237          11.4788043583      B2        B2 (3)
   61   266           0.4225902617          11.4992656309      A2        A2 (4)
   62   123           0.4267489210          11.6124285047      B1        B1 (2)
   63    27           0.4294614690          11.6862406888      A1        A1 (1)
   64   124           0.4556692493          12.3993906468      B1        B1 (2)
   65    28           0.4688360660          12.7576779425      A1        A1 (1)
   66   267           0.4706919151          12.8081781651      A2        A2 (4)
   67   200           0.4817361153          13.1087061301      B2        B2 (3)
   68    29           0.5158052758          14.0357751205      A1        A1 (1)
   69   201           0.5306353149          14.4393209997      B2        B2 (3)
   70   125           0.5458238289          14.8526214782      B1        B1 (2)
   71    30           0.5695393767          15.4979543401      A1        A1 (1)
   72   126           0.5791425605          15.7592702563      B1        B1 (2)
   73    31           0.6018118410          16.3761327406      A1        A1 (1)
   74   268           0.6156975619          16.7539824155      A2        A2 (4)
   75    32           0.6582062768          17.9107033534      A1        A1 (1)
   76   202           0.6600275084          17.9602615851      B2        B2 (3)
   77   203           0.6919826507          18.8298052132      B2        B2 (3)
   78   127           0.7196835212          19.5835842224      B1        B1 (2)
   79    33           0.7211006857          19.6221472275      A1        A1 (1)
   80   128           0.7483081296          20.3624994152      B1        B1 (2)
   81   204           0.7718265476          21.0024681053      B2        B2 (3)
   82    34           0.7723068443          21.0155376415      A1        A1 (1)
   83    35           0.7900061462          21.4971601317      A1        A1 (1)
   84   205           0.8232013499          22.4004475480      B2        B2 (3)
   85   129           0.8330376210          22.6681060920      B1        B1 (2)
   86   269           0.8414701901          22.8975679631      A2        A2 (4)
   87    36           0.8471238953          23.0514131014      A1        A1 (1)
   88   270           0.8709530299          23.6998368188      A2        A2 (4)
   89   206           0.8848371485          24.0776428932      B2        B2 (3)
   90   130           0.8864060179          24.1203340013      B1        B1 (2)
   91   271           0.8891253771          24.1943315268      A2        A2 (4)
   92    37           0.8923591847          24.2823279050      A1        A1 (1)
   93    38           0.8993544897          24.4726798305      A1        A1 (1)
   94   207           0.9102772924          24.7699044036      B2        B2 (3)
   95   131           0.9405521612          25.5937254652      B1        B1 (2)
   96   208           0.9476445102          25.7867180931      B2        B2 (3)
   97    39           0.9755333917          26.5456131412      A1        A1 (1)
   98   132           0.9771333489          26.5891501895      B1        B1 (2)
   99   272           1.0076751062          27.4202336572      A2        A2 (4)
  100   133           1.0828576410          29.4660544367      B1        B1 (2)
  101   209           1.0962075477          29.8293238671      B2        B2 (3)
  102    40           1.0965549731          29.8387777919      A1        A1 (1)
  103    41           1.1186631440          30.4403717074      A1        A1 (1)
  104   273           1.1386191503          30.9834022462      A2        A2 (4)
  105    42           1.1570442956          31.4847759381      A1        A1 (1)
  106   210           1.1757961933          31.9950410170      B2        B2 (3)
  107   134           1.1965173025          32.5588910625      B1        B1 (2)
  108   211           1.2751687965          34.6991070210      B2        B2 (3)
  109   135           1.2823310216          34.8940010737      B1        B1 (2)
  110    43           1.3027990871          35.4509654536      A1        A1 (1)
  111    44           1.3455861772          36.6152613653      A1        A1 (1)
  112   212           1.4376396438          39.1201635393      B2        B2 (3)
  113    45           1.4531984147          39.5435392199      A1        A1 (1)
  114   274           1.4645179338          39.8515589938      A2        A2 (4)
  115   136           1.4823534341          40.3368876288      B1        B1 (2)
  116    46           1.5074665807          41.0202510905      A1        A1 (1)
  117   213           1.5076537233          41.0253434999      B2        B2 (3)
  118   137           1.5183714835          41.3169885825      B1        B1 (2)
  119    47           1.6680187107          45.3890966550      A1        A1 (1)
  120   138           1.7007319523          46.2792692144      B1        B1 (2)
  121   275           1.7556313454          47.7731576487      A2        A2 (4)
  122   214           1.7647755910          48.0219852204      B2        B2 (3)
  123    48           1.7983479631          48.9355359109      A1        A1 (1)
  124   276           1.8121886026          49.3121588579      A2        A2 (4)
  125   139           1.8167045934          49.4350452161      B1        B1 (2)
  126    49           1.8391256498          50.0451531788      A1        A1 (1)
  127   140           1.8612541173          50.6472993906      B1        B1 (2)
  128   277           1.8693147719          50.8666409534      A2        A2 (4)
  129   215           1.8722462412          50.9464102898      B2        B2 (3)
  130   216           1.9069513063          51.8907831221      B2        B2 (3)
  131    50           1.9167576585          52.1576275294      A1        A1 (1)
  132    51           2.0173541222          54.8949964722      A1        A1 (1)
  133   217           2.1575817696          58.7107847499      B2        B2 (3)
  134   141           2.1924520673          59.6596537889      B1        B1 (2)
  135    52           2.1988866259          59.8347470299      A1        A1 (1)
  136   218           2.2336917644          60.7818429975      B2        B2 (3)
  137   278           2.2626380495          61.5695114608      A2        A2 (4)
  138   142           2.2707612587          61.7905552208      B1        B1 (2)
  139    53           2.2798001432          62.0365157726      A1        A1 (1)
  140   279           2.3038302813          62.6904090742      A2        A2 (4)
  141   143           2.3259693921          63.2928449040      B1        B1 (2)
  142    54           2.3323453765          63.4663442625      A1        A1 (1)
  143   219           2.3376317559          63.6101939591      B2        B2 (3)
  144   144           2.3743564571          64.6095238812      B1        B1 (2)
  145   280           2.3961566311          65.2027367755      A2        A2 (4)
  146    55           2.3992675000          65.2873878210      A1        A1 (1)
  147   220           2.4007252697          65.3270557528      B2        B2 (3)
  148    56           2.4394432104          66.3806244798      A1        A1 (1)
  149   221           2.4666771856          67.1216986209      B2        B2 (3)
  150   145           2.4732061091          67.2993596608      B1        B1 (2)
  151    57           2.4966216888          67.9365299775      A1        A1 (1)
  152   281           2.5011182051          68.0588864088      A2        A2 (4)
  153   146           2.5094982941          68.2869202227      B1        B1 (2)
  154    58           2.5287733362          68.8114207819      A1        A1 (1)
  155   222           2.5292874816          68.8254113908      B2        B2 (3)
  156    59           2.6587506031          72.3482820265      A1        A1 (1)
  157   147           2.6759039301          72.8150477835      B1        B1 (2)
  158   282           2.7200001423          74.0149667189      A2        A2 (4)
  159    60           2.7413962657          74.5971848377      A1        A1 (1)
  160   223           2.7823777604          75.7123480009      B2        B2 (3)
  161   148           2.7932831165          76.0090978275      B1        B1 (2)
  162    61           2.8241099464          76.8479385139      A1        A1 (1)
  163   224           2.8291348585          76.9846733261      B2        B2 (3)
  164   283           2.8812520969          78.4028554810      A2        A2 (4)
  165   225           2.8847517884          78.4980869271      B2        B2 (3)
  166    62           2.8999943500          78.9128581161      A1        A1 (1)
  167   149           2.9109870697          79.2119852250      B1        B1 (2)
  168    63           2.9177685966          79.3965199548      A1        A1 (1)
  169   226           2.9298854806          79.7262371310      B2        B2 (3)
  170   284           2.9354727756          79.8782751560      A2        A2 (4)
  171   150           2.9425802472          80.0716792915      B1        B1 (2)
  172   227           3.0053091099          81.7786184263      B2        B2 (3)
  173   228           3.0943681802          84.2020389320      B2        B2 (3)
  174    64           3.1258504190          85.0587142015      A1        A1 (1)
  175   285           3.1299237829          85.1695560681      A2        A2 (4)
  176   151           3.1345987735          85.2967690320      B1        B1 (2)
  177   152           3.1379451419          85.3878283445      B1        B1 (2)
  178    65           3.1545392487          85.8393769465      A1        A1 (1)
  179   229           3.1721212105          86.3178064510      B2        B2 (3)
  180   153           3.1962628340          86.9747334235      B1        B1 (2)
  181   286           3.1974775467          87.0077874350      A2        A2 (4)
  182    66           3.2223940825          87.6858008457      A1        A1 (1)
  183   230           3.2503491259          88.4464962475      B2        B2 (3)
  184   154           3.2798453723          89.2491299188      B1        B1 (2)
  185   287           3.2816244453          89.2975409560      A2        A2 (4)
  186    67           3.2984508063          89.7554095156      A1        A1 (1)
  187   288           3.3254071969          90.4889301957      A2        A2 (4)
  188    68           3.3351512375          90.7540790216      A1        A1 (1)
  189   155           3.3575115426          91.3625338568      B1        B1 (2)
  190   156           3.3684880308          91.6612192857      B1        B1 (2)
  191   231           3.3689850033          91.6747425924      B2        B2 (3)
  192   289           3.3720763572          91.7588626086      A2        A2 (4)
  193    69           3.3782129293          91.9258472269      A1        A1 (1)
  194    70           3.4443482577          93.7254810022      A1        A1 (1)
  195   232           3.4549011785          94.0126405785      B2        B2 (3)
  196   290           3.5154305961          95.6597297668      A2        A2 (4)
  197    71           3.5515909143          96.6437020480      A1        A1 (1)
  198   157           3.5620252856          96.9276357266      B1        B1 (2)
  199   233           3.6107296326          98.2529483877      B2        B2 (3)
  200    72           3.6138328862          98.3373922107      A1        A1 (1)
  201   158           3.7367077499         101.6809872355      B1        B1 (2)
  202   234           3.7499450542         102.0411925995      B2        B2 (3)
  203    73           3.7945763957         103.2556731442      A1        A1 (1)
  204   159           3.8420930924         104.5486681945      B1        B1 (2)
  205   291           3.8785451816         105.5405799711      A2        A2 (4)
  206   235           3.8915077727         105.8933100060      B2        B2 (3)
  207    74           3.8988494203         106.0930863959      A1        A1 (1)
  208   160           3.9568671587         107.6718293176      B1        B1 (2)
  209    75           3.9811094662         108.3314960414      A1        A1 (1)
  210    76           4.0568273745         110.3918850759      A1        A1 (1)
  211   236           4.0756747064         110.9047470499      B2        B2 (3)
  212   237           4.0883756981         111.2503586047      B2        B2 (3)
  213   292           4.1050957813         111.7053351983      A2        A2 (4)
  214   161           4.1082302071         111.7906272597      B1        B1 (2)
  215    77           4.1158516822         111.9980181417      A1        A1 (1)
  216   162           4.5740490736         124.4662030322      B1        B1 (2)
  217    78           4.6217210620         125.7634237863      A1        A1 (1)
  218   238           4.6325055206         126.0568838224      B2        B2 (3)
  219    79           4.6370181092         126.1796776009      A1        A1 (1)
  220   293           4.6489115226         126.5033138342      A2        A2 (4)
  221   163           4.6708818793         127.1011576333      B1        B1 (2)
  222   239           4.6736239725         127.1757737826      B2        B2 (3)
  223   294           4.6827397952         127.4238279302      A2        A2 (4)
  224    80           4.8484596238         131.9332937239      A1        A1 (1)
  225   164           4.8769988359         132.7098851652      B1        B1 (2)
  226    81           4.9264986773         134.0568443266      A1        A1 (1)
  227   240           4.9714243339         135.2793335950      B2        B2 (3)
  228    82           5.0448970412         137.2786276004      A1        A1 (1)
  229   241           5.1003398120         138.7873020954      B2        B2 (3)
  230    83           5.1562970414         140.3099757185      A1        A1 (1)
  231   165           5.3434728540         145.4032885170      B1        B1 (2)
  232   166           5.5013202840         149.6985354546      B1        B1 (2)
  233   295           5.5094663890         149.9202022414      A2        A2 (4)
  234   242           5.5096463828         149.9251001215      B2        B2 (3)
  235    84           5.5102682675         149.9420224642      A1        A1 (1)
  236   167           5.5150704354         150.0726960969      B1        B1 (2)
  237   243           5.5382558668         150.7036037584      B2        B2 (3)
  238    85           5.5386778694         150.7150870326      A1        A1 (1)
  239   296           5.5389277779         150.7218873884      A2        A2 (4)
  240   168           5.5463800101         150.9246729359      B1        B1 (2)
  241    86           5.6624900862         154.0841887333      A1        A1 (1)
  242   297           5.7682345498         156.9616418745      A2        A2 (4)
  243   244           5.8566454050         159.3674235529      B2        B2 (3)
  244   169           5.9040856419         160.6583380288      B1        B1 (2)
  245   298           5.9076620249         160.7556563570      A2        A2 (4)
  246    87           5.9205873420         161.1073721166      A1        A1 (1)
  247   299           5.9278838030         161.3059189145      A2        A2 (4)
  248   245           5.9326552842         161.4357575182      B2        B2 (3)
  249    88           5.9395976866         161.6246698925      A1        A1 (1)
  250   170           5.9440076635         161.7446714652      B1        B1 (2)
  251   246           6.0433910810         164.4490317411      B2        B2 (3)
  252    89           6.3643024056         173.1814728335      A1        A1 (1)
  253   300           6.7330754546         183.2162976563      A2        A2 (4)
  254    90           6.7421768722         183.4639598196      A1        A1 (1)
  255   171           6.7424938158         183.4725842927      B1        B1 (2)
  256   247           6.7444155018         183.5248760280      B2        B2 (3)
  257   301           6.7456002097         183.5571135696      A2        A2 (4)
  258   172           6.7617950173         183.9977966884      B1        B1 (2)
  259   302           6.7695553873         184.2089670917      A2        A2 (4)
  260   173           6.7729375631         184.3010007735      B1        B1 (2)
  261   248           6.7789914296         184.4657348564      B2        B2 (3)
  262    91           6.7823067427         184.5559491108      A1        A1 (1)
  263    92           6.8065792414         185.2164373800      A1        A1 (1)
  264   249           6.8152095671         185.4512804811      B2        B2 (3)
  265    93           6.8321213521         185.9114735462      A1        A1 (1)
  266   174           6.8348450371         185.9855887834      B1        B1 (2)
  267   250           6.8742247322         187.0571647666      B2        B2 (3)
  268    94           6.9604459116         189.4033623364      A1        A1 (1)
  269   175           6.9643060890         189.5084031024      B1        B1 (2)
  270   303           6.9947872549         190.3378377947      A2        A2 (4)
  271   251           7.0154776250         190.9008513877      B2        B2 (3)
  272    95           7.0807391156         192.6767068298      A1        A1 (1)
  273    96           7.2620677011         197.6109084927      A1        A1 (1)
  274   176           7.2674456531         197.7572500043      B1        B1 (2)
  275   304           7.2700881610         197.8291563015      A2        A2 (4)
  276   252           7.2725941419         197.8973475067      B2        B2 (3)
  277   305           7.3004841857         198.6562741827      A2        A2 (4)
  278   177           7.3008419778         198.6660102004      B1        B1 (2)
  279    97           7.3017795465         198.6915227418      A1        A1 (1)
  280   253           7.3132879136         199.0046813307      B2        B2 (3)
  281    98           7.4632796911         203.0861650965      A1        A1 (1)
  282   178           7.4943442658         203.9314751483      B1        B1 (2)
  283   254           7.5119373294         204.4102067482      B2        B2 (3)
  284    99           7.5361107826         205.0679998504      A1        A1 (1)
  285   100           7.9813400481         217.1833040955      A1        A1 (1)
  286   101           8.0308099975         218.5294498543      A1        A1 (1)
  287   255           8.0587923116         219.2908873329      B2        B2 (3)
  288   179           8.2482073528         224.4451326402      B1        B1 (2)
  289   256           9.0161592357         245.3421657572      B2        B2 (3)
  290   306           9.0194053574         245.4304972211      A2        A2 (4)
  291   102           9.0264740083         245.6228449908      A1        A1 (1)
  292   180           9.0799774266         247.0787470193      B1        B1 (2)
  293   181           9.1634701377         249.3506991907      B1        B1 (2)
  294   307           9.1645095505         249.3789830515      A2        A2 (4)
  295   103           9.2000692790         250.3466124569      A1        A1 (1)
  296   257           9.2922588856         252.8552191876      B2        B2 (3)
  297   104           9.4433424549         256.9664121172      A1        A1 (1)
  298   182           9.6087823470         261.4682604511      B1        B1 (2)
  299   308           9.6685534441         263.0947146912      A2        A2 (4)
  300   105           9.7683110139         265.8092561697      A1        A1 (1)
  301   258           9.8025466747         266.7408558629      B2        B2 (3)
  302   259          10.0613793847         273.7840519695      B2        B2 (3)
  303   106          10.1803949480         277.0226300925      A1        A1 (1)
  304   183          10.2829115102         279.8122475729      B1        B1 (2)
  305   107          14.5403538025         395.6631420908      A1        A1 (1)
  306   108          14.6051756550         397.4270343730      A1        A1 (1)
  307   260          14.6428004565         398.4508572722      B2        B2 (3)
  308   184          14.9908797097         407.9225752849      B1        B1 (2)


  VSCF finished.

 @CHECKOUT-I, Total execution time (CPU/WALL):      352.34/     102.84 seconds.
--executable xvscf finished with status     0 in      102.85 seconds (walltime).
 --invoking executable--
/opt/cfour/2.1/bin/xvtran
 @GETMEM-I,  Allocated   30517 MB of main memory.
  Full RHF integral transformation
  The following  17 MOs will be dropped:
    1  2  3  4  5  6  7  8  9 19 20 21 22 29 30 31 32
  There are 291 active molecular orbitals.
  Transformation of IIII integrals :
  1 pass through the AO integral file was required.
    24934997 AO integrals were read.
    19854813 MO integrals were written to HF2.
  Transformation of IIJJ integrals :
  1 pass through the AO integral file was required.
    52975023 AO integrals were read.
    44925840 MO integrals were written to HF2.
  Transformation of IJIJ integrals :
  1 pass through the AO integral file was required.
   102489748 AO integrals were read.
    87495552 MO integrals were written to HF2.
  Transformation of IJKL integrals :
  1 pass through the AO integral file was required.
    82602993 AO integrals were read.
    73903104 MO integrals were written to HF2.
  Summary of active molecular orbitals: 
------------------------------------------------------------------------

  Index      Eigenvalue    Symmetry    Index      Eigenvalue    Symmetry
------------------------------------------------------------------------
     1        -1.5225071        1       147         3.1345988        2
     2        -1.4876980        1       148         3.1379451        2
     3        -0.8444199        1       149         3.1962628        2
     4        -0.7964018        1       150         3.2798454        2
     5        -0.7115960        1       151         3.3575115        2
     6        -0.6502977        1       152         3.3684880        2
     7        -0.6282218        1       153         3.5620253        2
     8        -0.5987611        1       154         3.7367077        2
     9        -0.3524425        1       155         3.8420931        2
    10        -1.5223932        2       156         3.9568672        2
    11        -0.8200899        2       157         4.1082302        2
    12        -0.6592114        2       158         4.5740491        2
    13        -0.6484510        2       159         4.6708819        2
[...]
         1                S              0.03913968
         1                S              0.00134330
         1                S             -0.03436046
         1                P              1.99999733
         1                P              1.98953429
         1                P              0.00066086
         1                P              0.62352173
         1                P             -0.60610021
         1                P              0.11975009
         1                P              2.00000401
         1                P              1.97388712
         1                P             -0.00162340
         1                P              0.05014057
         1                P              0.50497300
         1                P             -0.15451147
         1                P              2.00000600
         1                P              1.99292171
         1                P              0.00152578
         1                P              0.09585150
         1                P             -0.01384363
         1                P              0.01981927
         1                D              0.48067518
         1                D              0.02572137
         1                D              0.00303049
         1                D              0.01075396
         1                D              1.45758374
         1                D              0.04363076
         1                D              0.00445378
         1                D              0.03060968
         1                D              1.55322574
         1                D              0.04081581
         1                D              0.00485241
         1                D              0.02861122
         1                D              0.73533076
         1                D              0.02784404
         1                D              0.00336880
         1                D              0.01319329
         1                D              1.48736927
         1                D              0.03249639
         1                D              0.00297658
         1                D              0.02179213
         1                D              0.96639501
         1                D              0.02479397
         1                D              0.00286535
         1                D              0.02202359
         1                F              0.00023903
         1                F              0.00199774
         1                F              0.00052796
         1                F              0.00280439
         1                F              0.00060028
         1                F              0.00245836
         1                F              0.00057260
         1                F              0.00306763
         1                F              0.00091773
         1                F              0.00306337
         1                F              0.00069932
         1                F              0.00294001
         1                F              0.00029998
         1                F              0.00148502
         1                F              0.00071405
         1                F              0.00336308
         1                F              0.00075066
         1                F              0.00286139
         1                F              0.00037102
         1                F              0.00136646
         1                G              0.00003221
         1                G              0.00006886
         1                G              0.00008137
         1                G              0.00009601
         1                G              0.00011237
         1                G              0.00011317
         1                G              0.00007059
         1                G              0.00012071
         1                G              0.00012760
         1                G              0.00009080
         1                G              0.00003169
         1                G              0.00009017
         1                G              0.00012121
         1                G              0.00008901
         1                G              0.00003712
         3                S              1.99752763
         4                S              1.99752763
         3                S              0.00276541
         4                S              0.00276541
         3                S              1.56323598
         4                S              1.56323598
         3                S             -0.20586686
         4                S             -0.20586686
         3                P             -0.01320994
         4                P             -0.01320994
         3                P              0.75832481
         4                P              0.75832481
         3                P             -0.09278391
         4                P             -0.09278391
         3                P             -0.07824084
         4                P             -0.07824084
         3                P              1.04808544
         4                P              1.04808544
         3                P             -0.07420798
         4                P             -0.07420798
         3                P             -0.04543888
         4                P             -0.04543888
         3                P              0.94320825
         4                P              0.94320825
         3                P             -0.08937530
         4                P             -0.08937530
         3                D              0.00357297
         4                D              0.00357297
         3                D              0.00497117
         4                D              0.00497117
         3                D              0.01089039
         4                D              0.01089039
         3                D              0.04211314
         4                D              0.04211314
         3                D              0.00511255
         4                D              0.00511255
         3                D              0.01773788
         4                D              0.01773788
         3                D              0.01029202
         4                D              0.01029202
         3                D              0.02472363
         4                D              0.02472363
         3                D              0.01383250
         4                D              0.01383250
         3                D              0.02272216
         4                D              0.02272216
         3                D              0.00651044
         4                D              0.00651044
         3                D              0.02095803
         4                D              0.02095803
         3                F              0.00093107
         4                F              0.00093107
         3                F              0.00167613
         4                F              0.00167613
         3                F              0.00083086
         4                F              0.00083086
         3                F              0.00248405
         4                F              0.00248405
         3                F              0.00350116
         4                F              0.00350116
         3                F              0.00048199
         4                F              0.00048199
         3                F              0.00211905
         4                F              0.00211905
         3                F              0.00361040
         4                F              0.00361040
         3                F              0.00431929
         4                F              0.00431929
         3                F              0.00078861
         4                F              0.00078861
         5                S              1.99754065
         6                S              1.99754065
         5                S              0.00346489
         6                S              0.00346489
         5                S              1.58363568
         6                S              1.58363568
         5                S             -0.23354347
         6                S             -0.23354347
         5                P             -0.10400695
         6                P             -0.10400695
         5                P              1.17007701
         6                P              1.17007701
         5                P             -0.07426340
         6                P             -0.07426340
         5                P             -0.01385540
         6                P             -0.01385540
         5                P              0.77755057
         6                P              0.77755057
         5                P             -0.10379228
         6                P             -0.10379228
         5                P             -0.01550261
         6                P             -0.01550261
         5                P              0.77434682
         6                P              0.77434682
         5                P             -0.09697118
         6                P             -0.09697118
         5                D              0.01130653
         6                D              0.01130653
         5                D              0.00886160
         6                D              0.00886160
         5                D              0.01480437
         6                D              0.01480437
         5                D              0.05702692
         6                D              0.05702692
         5                D              0.01400586
         6                D              0.01400586
         5                D              0.04818289
         6                D              0.04818289
         5                D              0.00352584
         6                D              0.00352584
         5                D              0.00490807
         6                D              0.00490807
         5                D              0.00150709
         6                D              0.00150709
         5                D              0.00542814
         6                D              0.00542814
         5                D              0.00364145
         6                D              0.00364145
         5                D              0.00486077
         6                D              0.00486077
         5                F              0.00221129
         6                F              0.00221129
         5                F              0.00506136
         6                F              0.00506136
         5                F              0.00501590
         6                F              0.00501590
         5                F              0.00206018
         6                F              0.00206018
         5                F              0.00088667
         6                F              0.00088667
         5                F              0.00212074
         6                F              0.00212074
         5                F              0.00101516
         6                F              0.00101516
         5                F              0.00049606
         6                F              0.00049606
         5                F              0.00049222
         6                F              0.00049222
         5                F              0.00100433
         6                F              0.00100433
         7                S              1.99653001
         8                S              1.99653001
         7                S              0.00439235
         8                S              0.00439235
         7                S              1.83701357
         8                S              1.83701357
         7                S             -0.09074259
         8                S             -0.09074259
         7                P             -0.01159801
         8                P             -0.01159801
         7                P              1.47395142
         8                P              1.47395142
         7                P             -0.03449868
         8                P             -0.03449868
         7                P             -0.04665367
         8                P             -0.04665367
         7                P              1.53750932
         8                P              1.53750932
         7                P             -0.08402857
         8                P             -0.08402857
         7                P             -0.02731833
         8                P             -0.02731833
         7                P              1.52447819
         8                P              1.52447819
         7                P             -0.05554292
         8                P             -0.05554292
         7                D              0.00158395
         8                D              0.00158395
         7                D              0.00414422
         8                D              0.00414422
         7                D              0.00265758
         8                D              0.00265758
         7                D              0.01093541
         8                D              0.01093541
         7                D              0.00209975
         8                D              0.00209975
         7                D              0.00691805
         8                D              0.00691805
         7                D              0.00227442
         8                D              0.00227442
         7                D              0.00855203
         8                D              0.00855203
         7                D              0.00366078
         8                D              0.00366078
         7                D              0.01103519
         8                D              0.01103519
         7                D              0.00170986
         8                D              0.00170986
         7                D              0.00667495
         8                D              0.00667495
         7                F              0.00026147
         8                F              0.00026147
         7                F              0.00052767
         8                F              0.00052767
         7                F              0.00040387
         8                F              0.00040387
         7                F              0.00058188
         8                F              0.00058188
         7                F              0.00080439
         8                F              0.00080439
         7                F              0.00032524
         8                F              0.00032524
         7                F              0.00040227
         8                F              0.00040227
         7                F              0.00086901
         8                F              0.00086901
         7                F              0.00085389
         8                F              0.00085389
         7                F              0.00024896
         8                F              0.00024896
         9                S              1.99648408
        10                S              1.99648408
         9                S              0.00458139
        10                S              0.00458139
         9                S              1.84233892
        10                S              1.84233892
         9                S             -0.09384036
        10                S             -0.09384036
         9                P             -0.06249404
        10                P             -0.06249404
         9                P              1.56418968
        10                P              1.56418968
         9                P             -0.10985831
        10                P             -0.10985831
         9                P             -0.01219828
        10                P             -0.01219828
         9                P              1.49876524
        10                P              1.49876524
         9                P             -0.04191647
        10                P             -0.04191647
         9                P             -0.01056879
        10                P             -0.01056879
         9                P              1.46259302
        10                P              1.46259302
         9                P             -0.04404349
        10                P             -0.04404349
         9                D              0.00302490
        10                D              0.00302490
         9                D              0.00852073
        10                D              0.00852073
         9                D              0.00314598
        10                D              0.00314598
         9                D              0.01393487
        10                D              0.01393487
         9                D              0.00314685
        10                D              0.00314685
         9                D              0.01418227
        10                D              0.01418227
         9                D              0.00160908
        10                D              0.00160908
         9                D              0.00413193
        10                D              0.00413193
         9                D              0.00169321
        10                D              0.00169321
         9                D              0.00398815
        10                D              0.00398815
         9                D              0.00159625
        10                D              0.00159625
         9                D              0.00411760
        10                D              0.00411760
         9                F              0.00052346
        10                F              0.00052346
         9                F              0.00096698
        10                F              0.00096698
         9                F              0.00096697
        10                F              0.00096697
         9                F              0.00061627
        10                F              0.00061627
         9                F              0.00043518
        10                F              0.00043518
         9                F              0.00060428
        10                F              0.00060428
         9                F              0.00027264
        10                F              0.00027264
         9                F              0.00032733
        10                F              0.00032733
         9                F              0.00032017
        10                F              0.00032017
         9                F              0.00026548
        10                F              0.00026548
 -------------------------------------------------------
  Population analysis by atoms (atomic charges).
 -------------------------------------------------------
     Z-matrix
      Center          Function          Population
 -------------------------------------------------------
         1                              26.13050571
         3                               5.91820329
         4                               5.91820329
         5                               5.86310377
         6                               5.86310377
         7                               8.09101692
         8                               8.09101692
         9                               8.06242316
        10                               8.06242316
 -------------------------------------------------------
 @CHECKOUT-I, Total execution time (CPU/WALL):        9.58/       0.32 seconds.
--executable xprops finished with status     0 in        0.35 seconds (walltime).
  The final electronic energy is     -1715.409704716906163 a.u. 
  This computation required                        53765.23 seconds (walltime).
Attempting to clean /scratch/jearias... save is False. TIME: Tue 02 Sep 2025 05:33:07 AM PDT
Total of 53766 seconds elapsed for this process.
