
     Program PWSCF v.7.2 starts on  4May2024 at 10:49:34 

     This program is part of the open-source Quantum ESPRESSO suite
     for quantum simulation of materials; please cite
         "P. Giannozzi et al., J. Phys.:Condens. Matter 21 395502 (2009);
         "P. Giannozzi et al., J. Phys.:Condens. Matter 29 465901 (2017);
         "P. Giannozzi et al., J. Chem. Phys. 152 154105 (2020);
          URL http://www.quantum-espresso.org", 
     in publications or presentations arising from this work. More details at
     http://www.quantum-espresso.org/quote

     Parallel version (MPI & OpenMP), running on     256 processor cores
     Number of MPI processes:                32
     Threads/MPI process:                     8

     MPI processes distributed on     1 nodes
     248022 MiB available memory on the printing compute node when the environment starts

     Waiting for input...
     Reading input from standard input
Warning: card &CELL ignored
Warning: card CELL_DYNAMICS = 'BFGS' ignored
Warning: card PRESS_CONV_THR= 0.05 ignored
Warning: card CELL_DOFREE = 'ALL' ignored
Warning: card / ignored

     Current dimensions of program PWSCF are:
     Max number of different atomic species (ntypx) = 10
     Max number of k-points (npk) =  40000
     Max angular momentum in pseudopotentials (lmaxx) =  4
     Found identity + ( -0.5000 -0.5000  0.0000) symmetry
     This is a supercell, fractional translations are disabled
     Message from routine setup:
     using ibrav=0 with symmetry is DISCOURAGED, use correct ibrav instead

     R & G space division:  proc/nbgrp/npool/nimage =      32
     Subspace diagonalization in iterative solution of the eigenvalue problem:
     a serial algorithm will be used


     Parallelization info
     --------------------
     sticks:   dense  smooth     PW     G-vecs:    dense   smooth      PW
     Min         148      74     20                18650     6592     938
     Max         149      75     21                18665     6603     951
     Sum        4765    2395    649               597115   211183   30141

     Using Slab Decomposition



     bravais-lattice index     =            0
     lattice parameter (alat)  =      12.0346  a.u.
     unit-cell volume          =    3363.5876 (a.u.)^3
     number of atoms/cell      =           24
     number of atomic types    =            4
     number of electrons       =       218.00
     number of Kohn-Sham states=          131
     kinetic-energy cutoff     =      60.0000  Ry
     charge density cutoff     =     480.0000  Ry
     scf convergence threshold =      4.8E-09
     mixing beta               =       0.4000
     number of iterations used =            8  plain     mixing
     energy convergence thresh.=      2.4E-04
     force convergence thresh. =      1.0E-04
     Exchange-correlation= SLA  PW   PSX  PSC
                           (   1   4  10   8   0   0   0)
     nstep                     =           50


     celldm(1)=  12.034619  celldm(2)=   0.000000  celldm(3)=   0.000000
     celldm(4)=   0.000000  celldm(5)=   0.000000  celldm(6)=   0.000000

     crystal axes: (cart. coord. in units of alat)
               a(1) = (   1.000000   0.000000   0.000000 )  
               a(2) = (  -0.500000   0.866025   0.000000 )  
               a(3) = (   0.000000   0.000000   2.228307 )  

     reciprocal axes: (cart. coord. in units 2 pi/alat)
               b(1) = (  1.000000  0.577350 -0.000000 )  
               b(2) = (  0.000000  1.154701  0.000000 )  
               b(3) = (  0.000000 -0.000000  0.448771 )  


     PseudoPot. # 1 for Cr read from file:
     ../pseudo/cr_pbesol_v1.5.uspp.F.UPF
     MD5 check sum: a621641e0be27168676a837af8893d0f
     Pseudo is Ultrasoft + core correction, Zval = 14.0
     Generated by new atomic code, or converted to UPF format
     Using radial grid of  857 points,  6 beta functions with: 
                l(1) =   0
                l(2) =   0
                l(3) =   1
                l(4) =   1
                l(5) =   2
                l(6) =   2
     Q(r) pseudized with  8 coefficients,  rinner =    0.950   0.950   0.950
                                                       0.950   0.950

     PseudoPot. # 2 for N  read from file:
     ../pseudo/N.pbesol-theos.UPF
     MD5 check sum: 1b64827339d390a5a22afef3ff345c9d
     Pseudo is Ultrasoft + core correction, Zval =  5.0
     Generated using "atomic" code by A. Dal Corso  v.5.1
     Using radial grid of 1085 points,  4 beta functions with: 
                l(1) =   0
                l(2) =   0
                l(3) =   1
                l(4) =   1
     Q(r) pseudized with 0 coefficients 


     PseudoPot. # 3 for S  read from file:
     ../pseudo/s_pbesol_v1.4.uspp.F.UPF
     MD5 check sum: 0ccfa86ec6eb59065d10aaae963ef2a7
     Pseudo is Ultrasoft + core correction, Zval =  6.0
     Generated by new atomic code, or converted to UPF format
     Using radial grid of  907 points,  6 beta functions with: 
                l(1) =   0
                l(2) =   0
                l(3) =   1
                l(4) =   1
                l(5) =   2
                l(6) =   2
     Q(r) pseudized with  8 coefficients,  rinner =    1.300   1.300   1.300
                                                       1.300   1.300

     PseudoPot. # 4 for W  read from file:
     ../pseudo/w_pbesol_v1.2.uspp.F.UPF
     MD5 check sum: 78d6efd6ad550bd5be97e9711072ceda
     Pseudo is Ultrasoft + core correction, Zval = 14.0
     Generated by new atomic code, or converted to UPF format
     Using radial grid of  923 points,  8 beta functions with: 
                l(1) =   0
                l(2) =   0
                l(3) =   0
                l(4) =   1
                l(5) =   1
                l(6) =   2
                l(7) =   2
                l(8) =   3
     Q(r) pseudized with  6 coefficients,  rinner =    1.350   1.350   1.350
                                                       1.350   1.350   1.350
                                                       1.350

     atomic species   valence    mass     pseudopotential
        Cr            14.00    51.99610     Cr( 1.00)
        N              5.00    14.00670     N ( 1.00)
        S              6.00    32.06500     S ( 1.00)
        W             14.00   183.84000     W ( 1.00)

     Starting magnetic structure 
     atomic species   magnetization
        Cr           0.357
        N            0.100
        S            0.100
        W            0.357

      2 Sym. Ops. (no inversion) found


                                    s                        frac. trans.

      isym =  1     identity                                     

 cryst.   s( 1) = (     1          0          0      )
                  (     0          1          0      )
                  (     0          0          1      )

 cart.    s( 1) = (  1.0000000  0.0000000  0.0000000 )
                  (  0.0000000  1.0000000  0.0000000 )
                  (  0.0000000  0.0000000  1.0000000 )


      isym =  2     inv. 180 deg rotation - cryst. axis [1,1,0]  

 cryst.   s( 2) = (     0         -1          0      )
                  (    -1          0          0      )
                  (     0          0          1      )

 cart.    s( 2) = (  0.5000000 -0.8660254  0.0000000 )
                  ( -0.8660254 -0.5000000  0.0000000 )
                  (  0.0000000  0.0000000  1.0000000 )


   Cartesian axes

     site n.     atom                  positions (alat units)
         1           Cr  tau(   1) = (   0.0000000   0.0000000   0.0000000  )
         2           Cr  tau(   2) = (   0.0000000   0.0000000   0.6580660  )
         3           Cr  tau(   3) = (  -0.2500000   0.4330127   0.3290319  )
         4           Cr  tau(   4) = (   0.5000000   0.0000000   0.3290319  )
         5           Cr  tau(   5) = (   0.2500000   0.4330127   0.0000000  )
         6           Cr  tau(   6) = (   0.2500000   0.4330127   0.6580660  )
         7           N   tau(   7) = (  -0.2500000   0.4330127   0.0000000  )
         8           N   tau(   8) = (  -0.2500000   0.4330127   0.6580660  )
         9           N   tau(   9) = (   0.0000000   0.0000000   0.3290319  )
        10           N   tau(  10) = (   0.2500000   0.4330127   0.3290319  )
        11           N   tau(  11) = (   0.5000000   0.0000000   0.0000000  )
        12           N   tau(  12) = (   0.5000000   0.0000000   0.6580660  )
        13           W   tau(  13) = (   0.0000005   0.2886748   1.4516219  )
        14           W   tau(  14) = (  -0.2499995   0.7216875   1.4516219  )
        15           W   tau(  15) = (   0.5000005   0.2886748   1.4516219  )
        16           W   tau(  16) = (   0.2500005   0.7216875   1.4516219  )
        17           S   tau(  17) = (   0.2499995   0.1443379   1.2066752  )
        18           S   tau(  18) = (  -0.0000005   0.5773506   1.2066752  )
        19           S   tau(  19) = (   0.7499995   0.1443379   1.2066752  )
        20           S   tau(  20) = (   0.4999995   0.5773506   1.2066752  )
        21           S   tau(  21) = (   0.2499995   0.1443379   1.6965664  )
        22           S   tau(  22) = (  -0.0000005   0.5773506   1.6965664  )
        23           S   tau(  23) = (   0.7499995   0.1443379   1.6965664  )
        24           S   tau(  24) = (   0.4999995   0.5773506   1.6965664  )

   Crystallographic axes

     site n.     atom                  positions (cryst. coord.)
         1           Cr  tau(   1) = (  0.0000000  0.0000000  0.0000000  )
         2           Cr  tau(   2) = (  0.0000000  0.0000000  0.2953210  )
         3           Cr  tau(   3) = (  0.0000000  0.5000000  0.1476600  )
         4           Cr  tau(   4) = (  0.5000000  0.0000000  0.1476600  )
         5           Cr  tau(   5) = (  0.5000000  0.5000000  0.0000000  )
         6           Cr  tau(   6) = (  0.5000000  0.5000000  0.2953210  )
         7           N   tau(   7) = (  0.0000000  0.5000000  0.0000000  )
         8           N   tau(   8) = (  0.0000000  0.5000000  0.2953210  )
         9           N   tau(   9) = (  0.0000000  0.0000000  0.1476600  )
        10           N   tau(  10) = (  0.5000000  0.5000000  0.1476600  )
        11           N   tau(  11) = (  0.5000000  0.0000000  0.0000000  )
        12           N   tau(  12) = (  0.5000000  0.0000000  0.2953210  )
        13           W   tau(  13) = (  0.1666670  0.3333330  0.6514460  )
        14           W   tau(  14) = (  0.1666670  0.8333330  0.6514460  )
        15           W   tau(  15) = (  0.6666670  0.3333330  0.6514460  )
        16           W   tau(  16) = (  0.6666670  0.8333330  0.6514460  )
        17           S   tau(  17) = (  0.3333330  0.1666670  0.5415210  )
        18           S   tau(  18) = (  0.3333330  0.6666670  0.5415210  )
        19           S   tau(  19) = (  0.8333330  0.1666670  0.5415210  )
        20           S   tau(  20) = (  0.8333330  0.6666670  0.5415210  )
        21           S   tau(  21) = (  0.3333330  0.1666670  0.7613700  )
        22           S   tau(  22) = (  0.3333330  0.6666670  0.7613700  )
        23           S   tau(  23) = (  0.8333330  0.1666670  0.7613700  )
        24           S   tau(  24) = (  0.8333330  0.6666670  0.7613700  )

     number of k points=    34  Marzari-Vanderbilt smearing, width (Ry)=  0.0147
                       cart. coord. in units 2pi/alat
        k(    1) = (   0.0000000   0.0000000   0.0000000), wk =   0.0092593
        k(    2) = (   0.0000000   0.0000000   0.1495904), wk =   0.0185185
        k(    3) = (   0.0000000   0.1924501   0.0000000), wk =   0.0370370
        k(    4) = (   0.0000000   0.1924501   0.1495904), wk =   0.0370370
        k(    5) = (   0.0000000   0.3849002   0.0000000), wk =   0.0370370
        k(    6) = (   0.0000000   0.3849002   0.1495904), wk =   0.0370370
        k(    7) = (   0.0000000  -0.5773503   0.0000000), wk =   0.0185185
        k(    8) = (   0.0000000  -0.5773503   0.1495904), wk =   0.0370370
        k(    9) = (   0.1666667   0.2886751   0.0000000), wk =   0.0185185
        k(   10) = (   0.1666667   0.2886751   0.1495904), wk =   0.0370370
        k(   11) = (   0.1666667   0.4811252   0.0000000), wk =   0.0370370
        k(   12) = (   0.1666667   0.4811252   0.1495904), wk =   0.0370370
        k(   13) = (   0.3333333   0.5773503   0.0000000), wk =   0.0185185
        k(   14) = (   0.3333333   0.5773503   0.1495904), wk =   0.0370370
        k(   15) = (  -0.1666667   0.0962250   0.0000000), wk =   0.0185185
        k(   16) = (   0.0000000   0.1924501  -0.1495904), wk =   0.0370370
        k(   17) = (  -0.1666667   0.0962250   0.1495904), wk =   0.0185185
        k(   18) = (   0.1666667  -0.0962250   0.1495904), wk =   0.0185185
        k(   19) = (  -0.3333333   0.1924501   0.0000000), wk =   0.0185185
        k(   20) = (   0.0000000   0.3849002  -0.1495904), wk =   0.0370370
        k(   21) = (  -0.3333333   0.1924501   0.1495904), wk =   0.0185185
        k(   22) = (   0.3333333  -0.1924501   0.1495904), wk =   0.0185185
        k(   23) = (   0.5000000  -0.2886751   0.0000000), wk =   0.0092593
        k(   24) = (   0.5000000  -0.2886751   0.1495904), wk =   0.0185185
        k(   25) = (  -0.1666667   0.2886751   0.0000000), wk =   0.0370370
        k(   26) = (  -0.1666667   0.2886751  -0.1495904), wk =   0.0370370
        k(   27) = (   0.1666667  -0.2886751  -0.1495904), wk =   0.0370370
        k(   28) = (  -0.1666667   0.4811252   0.0000000), wk =   0.0370370
        k(   29) = (  -0.3333333   0.3849002   0.0000000), wk =   0.0370370
        k(   30) = (  -0.1666667   0.4811252  -0.1495904), wk =   0.0370370
        k(   31) = (   0.1666667  -0.4811252  -0.1495904), wk =   0.0370370
        k(   32) = (  -0.3333333   0.3849002   0.1495904), wk =   0.0370370
        k(   33) = (   0.3333333  -0.3849002   0.1495904), wk =   0.0370370
        k(   34) = (  -0.3333333  -0.3849002  -0.1495904), wk =   0.0370370

                       cryst. coord.
        k(    1) = (   0.0000000   0.0000000   0.0000000), wk =   0.0092593
        k(    2) = (   0.0000000   0.0000000   0.3333333), wk =   0.0185185
        k(    3) = (   0.0000000   0.1666667   0.0000000), wk =   0.0370370
        k(    4) = (   0.0000000   0.1666667   0.3333333), wk =   0.0370370
        k(    5) = (   0.0000000   0.3333333   0.0000000), wk =   0.0370370
        k(    6) = (   0.0000000   0.3333333   0.3333333), wk =   0.0370370
        k(    7) = (   0.0000000  -0.5000000   0.0000000), wk =   0.0185185
        k(    8) = (   0.0000000  -0.5000000   0.3333333), wk =   0.0370370
        k(    9) = (   0.1666667   0.1666667   0.0000000), wk =   0.0185185
        k(   10) = (   0.1666667   0.1666667   0.3333333), wk =   0.0370370
        k(   11) = (   0.1666667   0.3333333   0.0000000), wk =   0.0370370
        k(   12) = (   0.1666667   0.3333333   0.3333333), wk =   0.0370370
        k(   13) = (   0.3333333   0.3333333   0.0000000), wk =   0.0185185
        k(   14) = (   0.3333333   0.3333333   0.3333333), wk =   0.0370370
        k(   15) = (  -0.1666667   0.1666667   0.0000000), wk =   0.0185185
        k(   16) = (   0.0000000   0.1666667  -0.3333333), wk =   0.0370370
        k(   17) = (  -0.1666667   0.1666667   0.3333333), wk =   0.0185185
        k(   18) = (   0.1666667  -0.1666667   0.3333333), wk =   0.0185185
        k(   19) = (  -0.3333333   0.3333333   0.0000000), wk =   0.0185185
        k(   20) = (   0.0000000   0.3333333  -0.3333333), wk =   0.0370370
        k(   21) = (  -0.3333333   0.3333333   0.3333333), wk =   0.0185185
        k(   22) = (   0.3333333  -0.3333333   0.3333333), wk =   0.0185185
        k(   23) = (   0.5000000  -0.5000000   0.0000000), wk =   0.0092593
        k(   24) = (   0.5000000  -0.5000000   0.3333333), wk =   0.0185185
        k(   25) = (  -0.1666667   0.3333333   0.0000000), wk =   0.0370370
        k(   26) = (  -0.1666667   0.3333333  -0.3333333), wk =   0.0370370
        k(   27) = (   0.1666667  -0.3333333  -0.3333333), wk =   0.0370370
        k(   28) = (  -0.1666667   0.5000000   0.0000000), wk =   0.0370370
        k(   29) = (  -0.3333333   0.5000000   0.0000000), wk =   0.0370370
        k(   30) = (  -0.1666667   0.5000000  -0.3333333), wk =   0.0370370
        k(   31) = (   0.1666667  -0.5000000  -0.3333333), wk =   0.0370370
        k(   32) = (  -0.3333333   0.5000000   0.3333333), wk =   0.0370370
        k(   33) = (   0.3333333  -0.5000000   0.3333333), wk =   0.0370370
        k(   34) = (  -0.3333333  -0.1666667  -0.3333333), wk =   0.0370370

     Dense  grid:   597115 G-vectors     FFT dimensions: (  90,  90, 192)

     Smooth grid:   211183 G-vectors     FFT dimensions: (  60,  60, 135)

     Dynamical RAM for                 wfc:       1.65 MB

     Dynamical RAM for     wfc (w. buffer):     113.65 MB

     Dynamical RAM for           str. fact:       1.14 MB

     Dynamical RAM for           local pot:       0.00 MB

     Dynamical RAM for          nlocal pot:       5.08 MB

     Dynamical RAM for                qrad:      16.87 MB

     Dynamical RAM for          rho,v,vnew:       3.93 MB

     Dynamical RAM for               rhoin:       1.31 MB

     Dynamical RAM for            rho*nmix:       9.11 MB

     Dynamical RAM for           G-vectors:       1.12 MB

     Dynamical RAM for          h,s,v(r/c):       3.14 MB

     Dynamical RAM for          <psi|beta>:       0.81 MB

     Dynamical RAM for                 psi:       3.29 MB

     Dynamical RAM for                hpsi:       3.29 MB

     Dynamical RAM for                spsi:       3.29 MB

     Dynamical RAM for      wfcinit/wfcrot:       3.69 MB

     Dynamical RAM for           addusdens:     110.22 MB

     Dynamical RAM for          addusforce:     114.34 MB

     Dynamical RAM for         addusstress:     115.77 MB

     Estimated static dynamical RAM per process >     146.75 MB

     Estimated max dynamical RAM per process >     271.64 MB

     Estimated total dynamical RAM >       8.49 GB

     Check: negative core charge=   -0.000004
     Generating pointlists ...
     new r_m :   0.1357 (alat units)  1.6334 (a.u.) for type    1
     new r_m :   0.1357 (alat units)  1.6334 (a.u.) for type    2
     new r_m :   0.1562 (alat units)  1.8794 (a.u.) for type    3
     new r_m :   0.1562 (alat units)  1.8794 (a.u.) for type    4
     Cannot read rho : file not found

     Initial potential from superposition of free atoms

     starting charge     211.5983, renormalised to     218.0000

     negative rho (up, down):  1.746E-01 8.222E-02
     Message from routine qexsd_readschema :
     xml data file ../out/aiida.save/data-file-schema.xml not found
     Cannot read wfcs: file not found
     Starting wfcs are  168 randomized atomic wfcs

     total cpu time spent up to now is      846.4 secs

     per-process dynamical memory:   174.2 Mb

     Self-consistent Calculation

     iteration #  1     ecut=    60.00 Ry     beta= 0.40
     Davidson diagonalization with overlap

---- Real-time Memory Report at c_bands before calling an iterative solver
           194 MiB given to the printing process from OS
           170 MiB allocation reported by mallinfo(arena+hblkhd)
        242711 MiB available memory on the node where the printing process lives
------------------
     c_bands:  2 eigenvalues not converged
     c_bands:  3 eigenvalues not converged
     c_bands:  5 eigenvalues not converged
     c_bands:  2 eigenvalues not converged
     c_bands:  3 eigenvalues not converged
     c_bands:  3 eigenvalues not converged
     c_bands:  3 eigenvalues not converged
     c_bands:  4 eigenvalues not converged
     c_bands:  4 eigenvalues not converged
     c_bands:  5 eigenvalues not converged
     c_bands:  4 eigenvalues not converged
     c_bands:  4 eigenvalues not converged
     c_bands:  5 eigenvalues not converged
     c_bands:  4 eigenvalues not converged
     c_bands:  4 eigenvalues not converged
     c_bands:  1 eigenvalues not converged
     c_bands:  3 eigenvalues not converged
     c_bands:  1 eigenvalues not converged
     c_bands:  1 eigenvalues not converged
     c_bands:  2 eigenvalues not converged
     c_bands:  3 eigenvalues not converged
     c_bands:  3 eigenvalues not converged
     c_bands:  4 eigenvalues not converged
     c_bands:  4 eigenvalues not converged
     c_bands:  4 eigenvalues not converged
     c_bands:  2 eigenvalues not converged
     c_bands:  4 eigenvalues not converged
     c_bands:  3 eigenvalues not converged
     c_bands:  2 eigenvalues not converged
     c_bands:  2 eigenvalues not converged
     c_bands:  4 eigenvalues not converged
     c_bands:  5 eigenvalues not converged
     c_bands:  5 eigenvalues not converged
     c_bands:  2 eigenvalues not converged
     c_bands:  4 eigenvalues not converged
     c_bands:  5 eigenvalues not converged
     c_bands:  2 eigenvalues not converged
     c_bands:  3 eigenvalues not converged
     c_bands:  4 eigenvalues not converged
     c_bands:  4 eigenvalues not converged
     c_bands:  1 eigenvalues not converged
     c_bands:  3 eigenvalues not converged
     c_bands:  2 eigenvalues not converged
     c_bands:  3 eigenvalues not converged
     c_bands:  4 eigenvalues not converged
     c_bands:  3 eigenvalues not converged
     c_bands:  3 eigenvalues not converged
     c_bands:  3 eigenvalues not converged
     c_bands:  4 eigenvalues not converged
     c_bands:  5 eigenvalues not converged
     c_bands:  5 eigenvalues not converged
     c_bands:  4 eigenvalues not converged
     c_bands:  5 eigenvalues not converged
     c_bands:  5 eigenvalues not converged
     c_bands:  5 eigenvalues not converged
     ethr =  1.00E-05,  avg # of iterations = 22.7

     negative rho (up, down):  1.538E-01 9.386E-02

     total cpu time spent up to now is     7697.5 secs

     total energy              =   -1075.08030820 Ry
     estimated scf accuracy    <    1575.81601499 Ry

     total magnetization       =     8.75 Bohr mag/cell
     absolute magnetization    =     9.19 Bohr mag/cell

     iteration #  2     ecut=    60.00 Ry     beta= 0.40
     Davidson diagonalization with overlap

---- Real-time Memory Report at c_bands before calling an iterative solver
           315 MiB given to the printing process from OS
           186 MiB allocation reported by mallinfo(arena+hblkhd)
        241896 MiB available memory on the node where the printing process lives
------------------
     ethr =  1.00E-02,  avg # of iterations = 32.1

     negative rho (up, down):  1.496E-01 9.762E-02

     total cpu time spent up to now is    34055.9 secs

     total energy              =   -2127.31675038 Ry
     estimated scf accuracy    <    8338.91769441 Ry

     total magnetization       =     4.53 Bohr mag/cell
     absolute magnetization    =     4.53 Bohr mag/cell

     iteration #  3     ecut=    60.00 Ry     beta= 0.40
     Davidson diagonalization with overlap

---- Real-time Memory Report at c_bands before calling an iterative solver
           316 MiB given to the printing process from OS
           186 MiB allocation reported by mallinfo(arena+hblkhd)
        238719 MiB available memory on the node where the printing process lives
------------------
     ethr =  1.00E-02,  avg # of iterations = 12.3

     negative rho (up, down):  1.524E-01 1.011E-01

     total cpu time spent up to now is    46492.0 secs

     total energy              =   -1919.68914918 Ry
     estimated scf accuracy    <    4423.50350903 Ry

     total magnetization       =     2.81 Bohr mag/cell
     absolute magnetization    =     2.89 Bohr mag/cell

     iteration #  4     ecut=    60.00 Ry     beta= 0.40
     Davidson diagonalization with overlap

---- Real-time Memory Report at c_bands before calling an iterative solver
           316 MiB given to the printing process from OS
           187 MiB allocation reported by mallinfo(arena+hblkhd)
        240629 MiB available memory on the node where the printing process lives
------------------
     ethr =  1.00E-02,  avg # of iterations = 10.1

     negative rho (up, down):  1.529E-01 1.042E-01

     total cpu time spent up to now is    53976.8 secs

     total energy              =   -1997.72219919 Ry
     estimated scf accuracy    <    1202.00602106 Ry

     total magnetization       =     2.12 Bohr mag/cell
     absolute magnetization    =     2.54 Bohr mag/cell

     iteration #  5     ecut=    60.00 Ry     beta= 0.40
     Davidson diagonalization with overlap

---- Real-time Memory Report at c_bands before calling an iterative solver
           316 MiB given to the printing process from OS
           187 MiB allocation reported by mallinfo(arena+hblkhd)
        240608 MiB available memory on the node where the printing process lives
------------------
     ethr =  1.00E-02,  avg # of iterations =  8.3

     negative rho (up, down):  1.529E-01 1.054E-01

     total cpu time spent up to now is    58660.8 secs

     total energy              =   -2003.07629084 Ry
     estimated scf accuracy    <     389.00438021 Ry

     total magnetization       =    10.70 Bohr mag/cell
     absolute magnetization    =    11.07 Bohr mag/cell

     iteration #  6     ecut=    60.00 Ry     beta= 0.40
     Davidson diagonalization with overlap

---- Real-time Memory Report at c_bands before calling an iterative solver
           317 MiB given to the printing process from OS
           188 MiB allocation reported by mallinfo(arena+hblkhd)
        240595 MiB available memory on the node where the printing process lives
------------------
     ethr =  1.00E-02,  avg # of iterations =  3.7

     negative rho (up, down):  1.530E-01 1.070E-01

     total cpu time spent up to now is    61625.9 secs

     total energy              =   -2000.95265985 Ry
     estimated scf accuracy    <     299.77266707 Ry

     total magnetization       =     7.79 Bohr mag/cell
     absolute magnetization    =     8.83 Bohr mag/cell

     iteration #  7     ecut=    60.00 Ry     beta= 0.40
     Davidson diagonalization with overlap

---- Real-time Memory Report at c_bands before calling an iterative solver
           317 MiB given to the printing process from OS
           188 MiB allocation reported by mallinfo(arena+hblkhd)
        240581 MiB available memory on the node where the printing process lives
------------------
     ethr =  1.00E-02,  avg # of iterations =  2.2

     negative rho (up, down):  1.523E-01 1.079E-01

     total cpu time spent up to now is    64464.3 secs

     total energy              =   -2001.72482972 Ry
     estimated scf accuracy    <     196.26789920 Ry

     total magnetization       =    11.83 Bohr mag/cell
     absolute magnetization    =    12.76 Bohr mag/cell

     iteration #  8     ecut=    60.00 Ry     beta= 0.40
     Davidson diagonalization with overlap

---- Real-time Memory Report at c_bands before calling an iterative solver
           318 MiB given to the printing process from OS
           188 MiB allocation reported by mallinfo(arena+hblkhd)
        240569 MiB available memory on the node where the printing process lives
------------------
     ethr =  1.00E-02,  avg # of iterations =  2.0

     negative rho (up, down):  1.529E-01 1.179E-01

     total cpu time spent up to now is    67293.8 secs

     total energy              =   -1979.28744568 Ry
     estimated scf accuracy    <     253.51845860 Ry

     total magnetization       =     9.12 Bohr mag/cell
     absolute magnetization    =     9.96 Bohr mag/cell

     iteration #  9     ecut=    60.00 Ry     beta= 0.40
     Davidson diagonalization with overlap

---- Real-time Memory Report at c_bands before calling an iterative solver
           318 MiB given to the printing process from OS
           189 MiB allocation reported by mallinfo(arena+hblkhd)
        240556 MiB available memory on the node where the printing process lives
------------------
     ethr =  1.00E-02,  avg # of iterations =  9.7

     negative rho (up, down):  1.506E-01 1.184E-01

     total cpu time spent up to now is    73147.7 secs

     total energy              =   -2001.09279322 Ry
     estimated scf accuracy    <     241.48098935 Ry

     total magnetization       =    15.88 Bohr mag/cell
     absolute magnetization    =    16.34 Bohr mag/cell

     iteration # 10     ecut=    60.00 Ry     beta= 0.40
     Davidson diagonalization with overlap

---- Real-time Memory Report at c_bands before calling an iterative solver
           318 MiB given to the printing process from OS
           189 MiB allocation reported by mallinfo(arena+hblkhd)
        240386 MiB available memory on the node where the printing process lives
------------------
     ethr =  1.00E-02,  avg # of iterations =  1.4

     negative rho (up, down):  1.501E-01 1.265E-01

     total cpu time spent up to now is    75950.9 secs

     total energy              =   -2009.84128579 Ry
     estimated scf accuracy    <      92.14381473 Ry

     total magnetization       =    13.16 Bohr mag/cell
     absolute magnetization    =    13.75 Bohr mag/cell

     iteration # 11     ecut=    60.00 Ry     beta= 0.40
     Davidson diagonalization with overlap

---- Real-time Memory Report at c_bands before calling an iterative solver
           318 MiB given to the printing process from OS
           189 MiB allocation reported by mallinfo(arena+hblkhd)
        240358 MiB available memory on the node where the printing process lives
------------------
     ethr =  1.00E-02,  avg # of iterations =  2.4

     negative rho (up, down):  1.489E-01 1.239E-01

     total cpu time spent up to now is    78812.2 secs

     total energy              =   -2005.83705492 Ry
     estimated scf accuracy    <     335.91202191 Ry

     total magnetization       =    10.60 Bohr mag/cell
     absolute magnetization    =    11.10 Bohr mag/cell

     iteration # 12     ecut=    60.00 Ry     beta= 0.40
     Davidson diagonalization with overlap

---- Real-time Memory Report at c_bands before calling an iterative solver
           318 MiB given to the printing process from OS
           189 MiB allocation reported by mallinfo(arena+hblkhd)
        240357 MiB available memory on the node where the printing process lives
------------------
     ethr =  1.00E-02,  avg # of iterations =  1.1

     negative rho (up, down):  1.479E-01 1.231E-01

     total cpu time spent up to now is    81600.7 secs

     total energy              =   -2005.94868737 Ry
     estimated scf accuracy    <     132.72377645 Ry

     total magnetization       =     9.55 Bohr mag/cell
     absolute magnetization    =    10.77 Bohr mag/cell

     iteration # 13     ecut=    60.00 Ry     beta= 0.40
     Davidson diagonalization with overlap

---- Real-time Memory Report at c_bands before calling an iterative solver
           318 MiB given to the printing process from OS
           189 MiB allocation reported by mallinfo(arena+hblkhd)
        240433 MiB available memory on the node where the printing process lives
------------------
     ethr =  1.00E-02,  avg # of iterations =  1.0

     negative rho (up, down):  1.478E-01 1.238E-01

     total cpu time spent up to now is    84383.4 secs

     total energy              =   -2006.45552733 Ry
     estimated scf accuracy    <     100.18519774 Ry

     total magnetization       =    10.54 Bohr mag/cell
     absolute magnetization    =    11.35 Bohr mag/cell

     iteration # 14     ecut=    60.00 Ry     beta= 0.40
     Davidson diagonalization with overlap

---- Real-time Memory Report at c_bands before calling an iterative solver
           319 MiB given to the printing process from OS
           189 MiB allocation reported by mallinfo(arena+hblkhd)
        240397 MiB available memory on the node where the printing process lives
------------------
     ethr =  1.00E-02,  avg # of iterations =  1.0

     negative rho (up, down):  1.477E-01 1.242E-01

     total cpu time spent up to now is    87170.0 secs

     total energy              =   -2005.28005702 Ry
     estimated scf accuracy    <     110.42392052 Ry

     total magnetization       =    10.03 Bohr mag/cell
     absolute magnetization    =    10.70 Bohr mag/cell

     iteration # 15     ecut=    60.00 Ry     beta= 0.40
     Davidson diagonalization with overlap

---- Real-time Memory Report at c_bands before calling an iterative solver
           319 MiB given to the printing process from OS
           189 MiB allocation reported by mallinfo(arena+hblkhd)
        240392 MiB available memory on the node where the printing process lives
------------------
     ethr =  1.00E-02,  avg # of iterations =  1.2

     negative rho (up, down):  1.482E-01 1.247E-01

     total cpu time spent up to now is    89966.1 secs

     total energy              =   -2006.13127225 Ry
     estimated scf accuracy    <     115.93925921 Ry

     total magnetization       =     5.69 Bohr mag/cell
     absolute magnetization    =     8.15 Bohr mag/cell

     iteration # 16     ecut=    60.00 Ry     beta= 0.40
     Davidson diagonalization with overlap

---- Real-time Memory Report at c_bands before calling an iterative solver
           319 MiB given to the printing process from OS
           189 MiB allocation reported by mallinfo(arena+hblkhd)
        240387 MiB available memory on the node where the printing process lives
------------------
     ethr =  1.00E-02,  avg # of iterations =  1.0

     negative rho (up, down):  1.506E-01 1.263E-01

     total cpu time spent up to now is    92751.3 secs

     total energy              =   -2008.51352937 Ry
     estimated scf accuracy    <      97.39833775 Ry

     total magnetization       =     3.84 Bohr mag/cell
     absolute magnetization    =     9.68 Bohr mag/cell

     iteration # 17     ecut=    60.00 Ry     beta= 0.40
     Davidson diagonalization with overlap

---- Real-time Memory Report at c_bands before calling an iterative solver
           319 MiB given to the printing process from OS
           189 MiB allocation reported by mallinfo(arena+hblkhd)
        240386 MiB available memory on the node where the printing process lives
------------------
     ethr =  1.00E-02,  avg # of iterations =  1.7

     negative rho (up, down):  1.460E-01 1.159E-01

     total cpu time spent up to now is    95560.9 secs

     total energy              =   -1979.75012926 Ry
     estimated scf accuracy    <     119.21877368 Ry

     total magnetization       =     4.95 Bohr mag/cell
     absolute magnetization    =    13.78 Bohr mag/cell

     iteration # 18     ecut=    60.00 Ry     beta= 0.40
     Davidson diagonalization with overlap

---- Real-time Memory Report at c_bands before calling an iterative solver
           319 MiB given to the printing process from OS
           189 MiB allocation reported by mallinfo(arena+hblkhd)
        240373 MiB available memory on the node where the printing process lives
------------------
     ethr =  1.00E-02,  avg # of iterations =  7.9

     negative rho (up, down):  1.451E-01 1.227E-01

     total cpu time spent up to now is   100104.6 secs

     total energy              =   -1998.92895280 Ry
     estimated scf accuracy    <     124.80283686 Ry

     total magnetization       =     7.26 Bohr mag/cell
     absolute magnetization    =     8.00 Bohr mag/cell

     iteration # 19     ecut=    60.00 Ry     beta= 0.40
     Davidson diagonalization with overlap

---- Real-time Memory Report at c_bands before calling an iterative solver
           319 MiB given to the printing process from OS
           189 MiB allocation reported by mallinfo(arena+hblkhd)
        240380 MiB available memory on the node where the printing process lives
------------------
     ethr =  1.00E-02,  avg # of iterations =  3.6

     negative rho (up, down):  1.423E-01 1.254E-01

     total cpu time spent up to now is   103764.2 secs

     total energy              =   -1998.85330724 Ry
     estimated scf accuracy    <      38.47028026 Ry

     total magnetization       =    12.51 Bohr mag/cell
     absolute magnetization    =    14.53 Bohr mag/cell

     iteration # 20     ecut=    60.00 Ry     beta= 0.40
     Davidson diagonalization with overlap

---- Real-time Memory Report at c_bands before calling an iterative solver
           319 MiB given to the printing process from OS
           189 MiB allocation reported by mallinfo(arena+hblkhd)
        239022 MiB available memory on the node where the printing process lives
------------------
     ethr =  1.00E-02,  avg # of iterations =  3.5

     negative rho (up, down):  1.420E-01 1.264E-01

     total cpu time spent up to now is   108814.4 secs

     total energy              =   -1998.77719509 Ry
     estimated scf accuracy    <      40.83926616 Ry

     total magnetization       =     9.88 Bohr mag/cell
     absolute magnetization    =    11.22 Bohr mag/cell

     iteration # 21     ecut=    60.00 Ry     beta= 0.40
     Davidson diagonalization with overlap

---- Real-time Memory Report at c_bands before calling an iterative solver
           319 MiB given to the printing process from OS
           189 MiB allocation reported by mallinfo(arena+hblkhd)
        236247 MiB available memory on the node where the printing process lives
------------------
     ethr =  1.00E-02,  avg # of iterations =  1.2

     negative rho (up, down):  1.418E-01 1.265E-01

     total cpu time spent up to now is   113679.1 secs

     total energy              =   -1999.29578036 Ry
     estimated scf accuracy    <      18.67235725 Ry

     total magnetization       =    13.77 Bohr mag/cell
     absolute magnetization    =    15.35 Bohr mag/cell

     iteration # 22     ecut=    60.00 Ry     beta= 0.40
     Davidson diagonalization with overlap

---- Real-time Memory Report at c_bands before calling an iterative solver
           319 MiB given to the printing process from OS
           189 MiB allocation reported by mallinfo(arena+hblkhd)
        236873 MiB available memory on the node where the printing process lives
------------------
     ethr =  8.57E-03,  avg # of iterations =  1.1

     negative rho (up, down):  1.417E-01 1.265E-01

     total cpu time spent up to now is   118544.2 secs

     total energy              =   -1999.12180469 Ry
     estimated scf accuracy    <      22.89511893 Ry

     total magnetization       =    12.04 Bohr mag/cell
     absolute magnetization    =    13.35 Bohr mag/cell

     iteration # 23     ecut=    60.00 Ry     beta= 0.40
     Davidson diagonalization with overlap

---- Real-time Memory Report at c_bands before calling an iterative solver
           319 MiB given to the printing process from OS
           189 MiB allocation reported by mallinfo(arena+hblkhd)
        235926 MiB available memory on the node where the printing process lives
------------------
     ethr =  8.57E-03,  avg # of iterations =  1.1

     negative rho (up, down):  1.417E-01 1.267E-01

     total cpu time spent up to now is   122854.5 secs

     total energy              =   -1999.08454150 Ry
     estimated scf accuracy    <      21.70395753 Ry

     total magnetization       =    13.44 Bohr mag/cell
     absolute magnetization    =    14.91 Bohr mag/cell

     iteration # 24     ecut=    60.00 Ry     beta= 0.40
     Davidson diagonalization with overlap

---- Real-time Memory Report at c_bands before calling an iterative solver
           319 MiB given to the printing process from OS
           189 MiB allocation reported by mallinfo(arena+hblkhd)
        237250 MiB available memory on the node where the printing process lives
------------------
     ethr =  8.57E-03,  avg # of iterations =  1.0

     negative rho (up, down):  1.410E-01 1.271E-01

     total cpu time spent up to now is   126686.1 secs

     total energy              =   -1998.99104635 Ry
     estimated scf accuracy    <      18.13033164 Ry

     total magnetization       =    10.20 Bohr mag/cell
     absolute magnetization    =    11.98 Bohr mag/cell

     iteration # 25     ecut=    60.00 Ry     beta= 0.40
     Davidson diagonalization with overlap

---- Real-time Memory Report at c_bands before calling an iterative solver
           319 MiB given to the printing process from OS
           189 MiB allocation reported by mallinfo(arena+hblkhd)
        238104 MiB available memory on the node where the printing process lives
------------------
     ethr =  8.32E-03,  avg # of iterations =  1.0

     negative rho (up, down):  1.411E-01 1.330E-01

     total cpu time spent up to now is   129471.0 secs

     total energy              =   -1996.70860739 Ry
     estimated scf accuracy    <      12.60803437 Ry

     total magnetization       =     7.12 Bohr mag/cell
     absolute magnetization    =    12.22 Bohr mag/cell

     iteration # 26     ecut=    60.00 Ry     beta= 0.40
     Davidson diagonalization with overlap

---- Real-time Memory Report at c_bands before calling an iterative solver
           319 MiB given to the printing process from OS
           189 MiB allocation reported by mallinfo(arena+hblkhd)
        238277 MiB available memory on the node where the printing process lives
------------------
     ethr =  5.78E-03,  avg # of iterations =  7.0

     negative rho (up, down):  1.397E-01 1.339E-01

     total cpu time spent up to now is   133974.1 secs

     total energy              =   -2000.61071963 Ry
     estimated scf accuracy    <      74.67675620 Ry

     total magnetization       =     2.03 Bohr mag/cell
     absolute magnetization    =     6.90 Bohr mag/cell

     iteration # 27     ecut=    60.00 Ry     beta= 0.40
     Davidson diagonalization with overlap

---- Real-time Memory Report at c_bands before calling an iterative solver
           319 MiB given to the printing process from OS
           189 MiB allocation reported by mallinfo(arena+hblkhd)
        238127 MiB available memory on the node where the printing process lives
------------------
     ethr =  5.78E-03,  avg # of iterations =  4.5

     negative rho (up, down):  1.382E-01 1.334E-01

     total cpu time spent up to now is   136944.2 secs

     total energy              =   -1998.99135700 Ry
     estimated scf accuracy    <      92.54313118 Ry

     total magnetization       =     2.55 Bohr mag/cell
     absolute magnetization    =    10.98 Bohr mag/cell

     iteration # 28     ecut=    60.00 Ry     beta= 0.40
     Davidson diagonalization with overlap

---- Real-time Memory Report at c_bands before calling an iterative solver
           319 MiB given to the printing process from OS
           189 MiB allocation reported by mallinfo(arena+hblkhd)
        238085 MiB available memory on the node where the printing process lives
------------------
     ethr =  5.78E-03,  avg # of iterations =  1.0

     negative rho (up, down):  1.383E-01 1.336E-01

     total cpu time spent up to now is   139729.7 secs

     total energy              =   -1999.46378282 Ry
     estimated scf accuracy    <      34.72341320 Ry

     total magnetization       =     7.92 Bohr mag/cell
     absolute magnetization    =    12.88 Bohr mag/cell

     iteration # 29     ecut=    60.00 Ry     beta= 0.40
     Davidson diagonalization with overlap

---- Real-time Memory Report at c_bands before calling an iterative solver
           319 MiB given to the printing process from OS
           189 MiB allocation reported by mallinfo(arena+hblkhd)
        238249 MiB available memory on the node where the printing process lives
------------------
     ethr =  5.78E-03,  avg # of iterations =  1.1

     negative rho (up, down):  1.381E-01 1.344E-01

     total cpu time spent up to now is   142514.6 secs

     total energy              =   -1999.51144435 Ry
     estimated scf accuracy    <      16.30349626 Ry

     total magnetization       =     9.23 Bohr mag/cell
     absolute magnetization    =    11.93 Bohr mag/cell

     iteration # 30     ecut=    60.00 Ry     beta= 0.40
     Davidson diagonalization with overlap

---- Real-time Memory Report at c_bands before calling an iterative solver
           319 MiB given to the printing process from OS
           189 MiB allocation reported by mallinfo(arena+hblkhd)
        238208 MiB available memory on the node where the printing process lives
------------------
     ethr =  5.78E-03,  avg # of iterations =  1.0

     negative rho (up, down):  1.376E-01 1.354E-01

     total cpu time spent up to now is   145302.0 secs

     total energy              =   -1999.59799423 Ry
     estimated scf accuracy    <       4.98228881 Ry

     total magnetization       =    12.95 Bohr mag/cell
     absolute magnetization    =    14.72 Bohr mag/cell

     iteration # 31     ecut=    60.00 Ry     beta= 0.40
     Davidson diagonalization with overlap

---- Real-time Memory Report at c_bands before calling an iterative solver
           319 MiB given to the printing process from OS
           189 MiB allocation reported by mallinfo(arena+hblkhd)
        238125 MiB available memory on the node where the printing process lives
------------------
     ethr =  2.29E-03,  avg # of iterations =  1.5

     negative rho (up, down):  1.376E-01 1.350E-01

     total cpu time spent up to now is   148118.4 secs

     total energy              =   -1999.42184622 Ry
     estimated scf accuracy    <      14.27916538 Ry

     total magnetization       =     9.51 Bohr mag/cell
     absolute magnetization    =    13.07 Bohr mag/cell

     iteration # 32     ecut=    60.00 Ry     beta= 0.40
     Davidson diagonalization with overlap

---- Real-time Memory Report at c_bands before calling an iterative solver
           319 MiB given to the printing process from OS
           189 MiB allocation reported by mallinfo(arena+hblkhd)
        238130 MiB available memory on the node where the printing process lives
------------------
     ethr =  2.29E-03,  avg # of iterations =  1.0

     negative rho (up, down):  1.372E-01 1.357E-01

     total cpu time spent up to now is   150904.3 secs

     total energy              =   -1999.64713956 Ry
     estimated scf accuracy    <       7.96679847 Ry

     total magnetization       =    11.23 Bohr mag/cell
     absolute magnetization    =    14.12 Bohr mag/cell

     iteration # 33     ecut=    60.00 Ry     beta= 0.40
     Davidson diagonalization with overlap

---- Real-time Memory Report at c_bands before calling an iterative solver
           319 MiB given to the printing process from OS
           189 MiB allocation reported by mallinfo(arena+hblkhd)
        238328 MiB available memory on the node where the printing process lives
------------------
     ethr =  2.29E-03,  avg # of iterations =  1.1

     negative rho (up, down):  1.365E-01 1.374E-01

     total cpu time spent up to now is   153690.9 secs

     total energy              =   -1999.48105156 Ry
     estimated scf accuracy    <       5.72867814 Ry

     total magnetization       =    12.51 Bohr mag/cell
     absolute magnetization    =    14.98 Bohr mag/cell

     iteration # 34     ecut=    60.00 Ry     beta= 0.40
     Davidson diagonalization with overlap

---- Real-time Memory Report at c_bands before calling an iterative solver
           319 MiB given to the printing process from OS
           189 MiB allocation reported by mallinfo(arena+hblkhd)
        238243 MiB available memory on the node where the printing process lives
------------------
     ethr =  2.29E-03,  avg # of iterations =  2.5

     negative rho (up, down):  1.355E-01 1.406E-01

     total cpu time spent up to now is   156546.7 secs

     total energy              =   -1999.33379487 Ry
     estimated scf accuracy    <      12.83743086 Ry

     total magnetization       =     9.28 Bohr mag/cell
     absolute magnetization    =    15.91 Bohr mag/cell

     iteration # 35     ecut=    60.00 Ry     beta= 0.40
     Davidson diagonalization with overlap

---- Real-time Memory Report at c_bands before calling an iterative solver
           319 MiB given to the printing process from OS
           189 MiB allocation reported by mallinfo(arena+hblkhd)
        238161 MiB available memory on the node where the printing process lives
------------------
     ethr =  2.29E-03,  avg # of iterations =  1.1

     negative rho (up, down):  1.355E-01 1.416E-01

     total cpu time spent up to now is   159338.9 secs

     total energy              =   -1999.75330355 Ry
     estimated scf accuracy    <       2.32651494 Ry

     total magnetization       =    12.14 Bohr mag/cell
     absolute magnetization    =    18.27 Bohr mag/cell

     iteration # 36     ecut=    60.00 Ry     beta= 0.40
     Davidson diagonalization with overlap

---- Real-time Memory Report at c_bands before calling an iterative solver
           319 MiB given to the printing process from OS
           189 MiB allocation reported by mallinfo(arena+hblkhd)
        239833 MiB available memory on the node where the printing process lives
------------------
     ethr =  1.07E-03,  avg # of iterations =  1.1

     negative rho (up, down):  1.353E-01 1.427E-01

     total cpu time spent up to now is   162120.1 secs

     total energy              =   -1999.81229743 Ry
     estimated scf accuracy    <       0.37423136 Ry

     total magnetization       =    12.97 Bohr mag/cell
     absolute magnetization    =    19.33 Bohr mag/cell

     iteration # 37     ecut=    60.00 Ry     beta= 0.40
     Davidson diagonalization with overlap

---- Real-time Memory Report at c_bands before calling an iterative solver
           319 MiB given to the printing process from OS
           189 MiB allocation reported by mallinfo(arena+hblkhd)
        238836 MiB available memory on the node where the printing process lives
------------------
     c_bands:  2 eigenvalues not converged
     ethr =  1.72E-04,  avg # of iterations =  5.8

     negative rho (up, down):  1.351E-01 1.468E-01

     total cpu time spent up to now is   165113.0 secs

     total energy              =   -1999.87213016 Ry
     estimated scf accuracy    <       0.35253767 Ry

     total magnetization       =    12.62 Bohr mag/cell
     absolute magnetization    =    19.94 Bohr mag/cell

     iteration # 38     ecut=    60.00 Ry     beta= 0.40
     Davidson diagonalization with overlap

---- Real-time Memory Report at c_bands before calling an iterative solver
           319 MiB given to the printing process from OS
           189 MiB allocation reported by mallinfo(arena+hblkhd)
        235897 MiB available memory on the node where the printing process lives
------------------
     c_bands:  1 eigenvalues not converged
     ethr =  1.62E-04,  avg # of iterations =  5.7

     negative rho (up, down):  1.351E-01 1.449E-01

     total cpu time spent up to now is   168090.8 secs

     total energy              =   -1999.88080224 Ry
     estimated scf accuracy    <       0.17953647 Ry

     total magnetization       =    11.67 Bohr mag/cell
     absolute magnetization    =    22.41 Bohr mag/cell

     iteration # 39     ecut=    60.00 Ry     beta= 0.40
     Davidson diagonalization with overlap

---- Real-time Memory Report at c_bands before calling an iterative solver
           319 MiB given to the printing process from OS
           189 MiB allocation reported by mallinfo(arena+hblkhd)
        235885 MiB available memory on the node where the printing process lives
------------------
     c_bands:  3 eigenvalues not converged
     c_bands:  1 eigenvalues not converged
     c_bands:  2 eigenvalues not converged
     c_bands:  1 eigenvalues not converged
     c_bands:  4 eigenvalues not converged
     c_bands:  2 eigenvalues not converged
     ethr =  8.24E-05,  avg # of iterations =  4.8

     negative rho (up, down):  1.354E-01 1.456E-01

     total cpu time spent up to now is   171029.5 secs

     total energy              =   -1999.90858659 Ry
     estimated scf accuracy    <       0.13718583 Ry

     total magnetization       =    12.07 Bohr mag/cell
     absolute magnetization    =    22.35 Bohr mag/cell

     iteration # 40     ecut=    60.00 Ry     beta= 0.40
     Davidson diagonalization with overlap

---- Real-time Memory Report at c_bands before calling an iterative solver
           319 MiB given to the printing process from OS
           189 MiB allocation reported by mallinfo(arena+hblkhd)
        235866 MiB available memory on the node where the printing process lives
------------------
     c_bands:  1 eigenvalues not converged
     c_bands:  1 eigenvalues not converged
     c_bands:  2 eigenvalues not converged
     c_bands:  2 eigenvalues not converged
     ethr =  6.29E-05,  avg # of iterations =  5.2

     negative rho (up, down):  1.355E-01 1.461E-01

     total cpu time spent up to now is   174074.1 secs

     total energy              =   -1999.92158306 Ry
     estimated scf accuracy    <       0.24848411 Ry

     total magnetization       =    11.42 Bohr mag/cell
     absolute magnetization    =    22.77 Bohr mag/cell

     iteration # 41     ecut=    60.00 Ry     beta= 0.40
     Davidson diagonalization with overlap

---- Real-time Memory Report at c_bands before calling an iterative solver
           319 MiB given to the printing process from OS
           189 MiB allocation reported by mallinfo(arena+hblkhd)
        235823 MiB available memory on the node where the printing process lives
------------------
     c_bands:  1 eigenvalues not converged
     ethr =  6.29E-05,  avg # of iterations =  2.0

     negative rho (up, down):  1.355E-01 1.468E-01

     total cpu time spent up to now is   176893.1 secs

     total energy              =   -1999.93731723 Ry
     estimated scf accuracy    <       0.22646322 Ry

     total magnetization       =    11.33 Bohr mag/cell
     absolute magnetization    =    23.41 Bohr mag/cell

     iteration # 42     ecut=    60.00 Ry     beta= 0.40
     Davidson diagonalization with overlap

---- Real-time Memory Report at c_bands before calling an iterative solver
           319 MiB given to the printing process from OS
           189 MiB allocation reported by mallinfo(arena+hblkhd)
        235807 MiB available memory on the node where the printing process lives
------------------
     c_bands:  1 eigenvalues not converged
     ethr =  6.29E-05,  avg # of iterations =  2.4

     negative rho (up, down):  1.358E-01 1.491E-01

     total cpu time spent up to now is   180421.6 secs

     total energy              =   -1999.97100909 Ry
     estimated scf accuracy    <       0.12962547 Ry

     total magnetization       =    11.29 Bohr mag/cell
     absolute magnetization    =    23.81 Bohr mag/cell

     iteration # 43     ecut=    60.00 Ry     beta= 0.40
     Davidson diagonalization with overlap

---- Real-time Memory Report at c_bands before calling an iterative solver
           319 MiB given to the printing process from OS
           189 MiB allocation reported by mallinfo(arena+hblkhd)
        235033 MiB available memory on the node where the printing process lives
------------------
     c_bands:  3 eigenvalues not converged
     c_bands:  4 eigenvalues not converged
     c_bands:  5 eigenvalues not converged
     c_bands:  4 eigenvalues not converged
     c_bands:  3 eigenvalues not converged
     c_bands:  3 eigenvalues not converged
     c_bands:  3 eigenvalues not converged
     c_bands:  2 eigenvalues not converged
     c_bands:  3 eigenvalues not converged
     c_bands:  2 eigenvalues not converged
     c_bands:  3 eigenvalues not converged
     c_bands:  1 eigenvalues not converged
     c_bands:  2 eigenvalues not converged
     c_bands:  2 eigenvalues not converged
     c_bands:  2 eigenvalues not converged
     c_bands:  1 eigenvalues not converged
     c_bands:  4 eigenvalues not converged
     c_bands:  1 eigenvalues not converged
     c_bands:  1 eigenvalues not converged
     c_bands:  1 eigenvalues not converged
     c_bands:  1 eigenvalues not converged
     c_bands:  1 eigenvalues not converged
     c_bands:  1 eigenvalues not converged
     c_bands:  4 eigenvalues not converged
     c_bands:  5 eigenvalues not converged
     c_bands:  2 eigenvalues not converged
     c_bands:  3 eigenvalues not converged
     c_bands:  2 eigenvalues not converged
     c_bands:  1 eigenvalues not converged
     ethr =  5.95E-05,  avg # of iterations = 18.3

     negative rho (up, down):  1.357E-01 1.481E-01

     total cpu time spent up to now is   186512.0 secs

     total energy              =   -1999.96123441 Ry
     estimated scf accuracy    <       0.17926046 Ry

     total magnetization       =    10.96 Bohr mag/cell
     absolute magnetization    =    25.03 Bohr mag/cell

     iteration # 44     ecut=    60.00 Ry     beta= 0.40
     Davidson diagonalization with overlap

---- Real-time Memory Report at c_bands before calling an iterative solver
           319 MiB given to the printing process from OS
           189 MiB allocation reported by mallinfo(arena+hblkhd)
        235010 MiB available memory on the node where the printing process lives
------------------
     c_bands:  1 eigenvalues not converged
     c_bands:  1 eigenvalues not converged
     c_bands:  1 eigenvalues not converged
     c_bands:  1 eigenvalues not converged
     c_bands:  1 eigenvalues not converged
     c_bands:  1 eigenvalues not converged
     c_bands:  2 eigenvalues not converged
     c_bands:  1 eigenvalues not converged
     c_bands:  1 eigenvalues not converged
     c_bands:  1 eigenvalues not converged
     ethr =  5.95E-05,  avg # of iterations = 10.7

     negative rho (up, down):  1.358E-01 1.493E-01

     total cpu time spent up to now is   191136.3 secs

     total energy              =   -1999.99130539 Ry
     estimated scf accuracy    <       0.11643168 Ry

     total magnetization       =    11.33 Bohr mag/cell
     absolute magnetization    =    25.01 Bohr mag/cell

     iteration # 45     ecut=    60.00 Ry     beta= 0.40
     Davidson diagonalization with overlap

---- Real-time Memory Report at c_bands before calling an iterative solver
           319 MiB given to the printing process from OS
           189 MiB allocation reported by mallinfo(arena+hblkhd)
        235209 MiB available memory on the node where the printing process lives
------------------
     ethr =  5.34E-05,  avg # of iterations =  6.0

     negative rho (up, down):  1.360E-01 1.499E-01

     total cpu time spent up to now is   195371.9 secs

     total energy              =   -1999.99269511 Ry
     estimated scf accuracy    <       0.23260438 Ry

     total magnetization       =    11.46 Bohr mag/cell
     absolute magnetization    =    25.51 Bohr mag/cell

     iteration # 46     ecut=    60.00 Ry     beta= 0.40
     Davidson diagonalization with overlap

---- Real-time Memory Report at c_bands before calling an iterative solver
           319 MiB given to the printing process from OS
           189 MiB allocation reported by mallinfo(arena+hblkhd)
        235331 MiB available memory on the node where the printing process lives
------------------
     ethr =  5.34E-05,  avg # of iterations =  1.3

     negative rho (up, down):  1.359E-01 1.494E-01

     total cpu time spent up to now is   198173.3 secs

     total energy              =   -1999.98565714 Ry
     estimated scf accuracy    <       0.12244970 Ry

     total magnetization       =    10.69 Bohr mag/cell
     absolute magnetization    =    26.24 Bohr mag/cell

     iteration # 47     ecut=    60.00 Ry     beta= 0.40
     Davidson diagonalization with overlap

---- Real-time Memory Report at c_bands before calling an iterative solver
           319 MiB given to the printing process from OS
           189 MiB allocation reported by mallinfo(arena+hblkhd)
        235448 MiB available memory on the node where the printing process lives
------------------
     ethr =  5.34E-05,  avg # of iterations =  1.3

     negative rho (up, down):  1.372E-01 1.540E-01

     total cpu time spent up to now is   200976.8 secs

     total energy              =   -2000.03020942 Ry
     estimated scf accuracy    <       0.28594267 Ry

     total magnetization       =    10.51 Bohr mag/cell
     absolute magnetization    =    25.55 Bohr mag/cell

     iteration # 48     ecut=    60.00 Ry     beta= 0.40
     Davidson diagonalization with overlap

---- Real-time Memory Report at c_bands before calling an iterative solver
           319 MiB given to the printing process from OS
           189 MiB allocation reported by mallinfo(arena+hblkhd)
        235442 MiB available memory on the node where the printing process lives
------------------
     c_bands:  1 eigenvalues not converged
     c_bands:  1 eigenvalues not converged
     c_bands:  1 eigenvalues not converged
     ethr =  5.34E-05,  avg # of iterations =  7.5

     negative rho (up, down):  1.381E-01 1.565E-01

     total cpu time spent up to now is   204109.6 secs

     total energy              =   -2000.07930713 Ry
     estimated scf accuracy    <       0.06287791 Ry

     total magnetization       =     9.95 Bohr mag/cell
     absolute magnetization    =    27.90 Bohr mag/cell

     iteration # 49     ecut=    60.00 Ry     beta= 0.40
     Davidson diagonalization with overlap

---- Real-time Memory Report at c_bands before calling an iterative solver
           319 MiB given to the printing process from OS
           189 MiB allocation reported by mallinfo(arena+hblkhd)
        235406 MiB available memory on the node where the printing process lives
------------------
     c_bands:  4 eigenvalues not converged
     c_bands:  4 eigenvalues not converged
     c_bands:  3 eigenvalues not converged
     c_bands:  3 eigenvalues not converged
     c_bands:  2 eigenvalues not converged
     c_bands:  3 eigenvalues not converged
     c_bands:  3 eigenvalues not converged
     c_bands:  1 eigenvalues not converged
     c_bands:  1 eigenvalues not converged
     c_bands:  1 eigenvalues not converged
     c_bands:  1 eigenvalues not converged
     c_bands:  1 eigenvalues not converged
     c_bands:  2 eigenvalues not converged
     c_bands:  1 eigenvalues not converged
     c_bands:  1 eigenvalues not converged
     c_bands:  1 eigenvalues not converged
     c_bands:  5 eigenvalues not converged
     ethr =  2.88E-05,  avg # of iterations = 14.9

     negative rho (up, down):  1.386E-01 1.577E-01

     total cpu time spent up to now is   207945.6 secs

     total energy              =   -2000.09735240 Ry
     estimated scf accuracy    <       0.13538076 Ry

     total magnetization       =     9.80 Bohr mag/cell
     absolute magnetization    =    30.18 Bohr mag/cell

     iteration # 50     ecut=    60.00 Ry     beta= 0.40
     Davidson diagonalization with overlap

---- Real-time Memory Report at c_bands before calling an iterative solver
           319 MiB given to the printing process from OS
           189 MiB allocation reported by mallinfo(arena+hblkhd)
        235408 MiB available memory on the node where the printing process lives
------------------
     c_bands:  2 eigenvalues not converged
     c_bands:  1 eigenvalues not converged
     c_bands:  5 eigenvalues not converged
     c_bands:  2 eigenvalues not converged
     ethr =  2.88E-05,  avg # of iterations =  6.0

     negative rho (up, down):  1.387E-01 1.580E-01

     total cpu time spent up to now is   211080.1 secs

     total energy              =   -2000.10724768 Ry
     estimated scf accuracy    <       0.03393332 Ry

     total magnetization       =     9.51 Bohr mag/cell
     absolute magnetization    =    30.52 Bohr mag/cell

     iteration # 51     ecut=    60.00 Ry     beta= 0.40
     Davidson diagonalization with overlap

---- Real-time Memory Report at c_bands before calling an iterative solver
           319 MiB given to the printing process from OS
           189 MiB allocation reported by mallinfo(arena+hblkhd)
        235431 MiB available memory on the node where the printing process lives
------------------
     c_bands:  2 eigenvalues not converged
     c_bands:  2 eigenvalues not converged
     c_bands:  1 eigenvalues not converged
     c_bands:  1 eigenvalues not converged
     c_bands:  4 eigenvalues not converged
     c_bands:  1 eigenvalues not converged
     c_bands:  1 eigenvalues not converged
     c_bands:  5 eigenvalues not converged
     c_bands:  4 eigenvalues not converged
     c_bands:  1 eigenvalues not converged
     c_bands:  1 eigenvalues not converged
     ethr =  1.56E-05,  avg # of iterations = 13.5

     negative rho (up, down):  1.386E-01 1.574E-01

     total cpu time spent up to now is   214863.6 secs

     total energy              =   -2000.10726814 Ry
     estimated scf accuracy    <       0.08281119 Ry

     total magnetization       =     9.63 Bohr mag/cell
     absolute magnetization    =    30.74 Bohr mag/cell

     iteration # 52     ecut=    60.00 Ry     beta= 0.40
     Davidson diagonalization with overlap

---- Real-time Memory Report at c_bands before calling an iterative solver
           319 MiB given to the printing process from OS
           189 MiB allocation reported by mallinfo(arena+hblkhd)
        235448 MiB available memory on the node where the printing process lives
------------------
     c_bands:  1 eigenvalues not converged
     c_bands:  1 eigenvalues not converged
     c_bands:  1 eigenvalues not converged
     c_bands:  1 eigenvalues not converged
     c_bands:  2 eigenvalues not converged
     c_bands:  1 eigenvalues not converged
     c_bands:  1 eigenvalues not converged
     c_bands:  1 eigenvalues not converged
     c_bands:  4 eigenvalues not converged
     c_bands:  1 eigenvalues not converged
     c_bands:  2 eigenvalues not converged
     c_bands:  1 eigenvalues not converged
     c_bands:  2 eigenvalues not converged
     ethr =  1.56E-05,  avg # of iterations =  9.9

     negative rho (up, down):  1.387E-01 1.577E-01

     total cpu time spent up to now is   218034.4 secs

     total energy              =   -2000.11546125 Ry
     estimated scf accuracy    <       0.01480826 Ry

     total magnetization       =     9.29 Bohr mag/cell
     absolute magnetization    =    30.74 Bohr mag/cell

     iteration # 53     ecut=    60.00 Ry     beta= 0.40
     Davidson diagonalization with overlap

---- Real-time Memory Report at c_bands before calling an iterative solver
           319 MiB given to the printing process from OS
           189 MiB allocation reported by mallinfo(arena+hblkhd)
        235418 MiB available memory on the node where the printing process lives
------------------
     c_bands:  1 eigenvalues not converged
     c_bands:  2 eigenvalues not converged
     c_bands:  1 eigenvalues not converged
     c_bands:  1 eigenvalues not converged
     c_bands:  1 eigenvalues not converged
     c_bands:  1 eigenvalues not converged
     c_bands:  1 eigenvalues not converged
     c_bands:  2 eigenvalues not converged
     c_bands:  2 eigenvalues not converged
     c_bands:  2 eigenvalues not converged
     ethr =  6.79E-06,  avg # of iterations =  9.6

     negative rho (up, down):  1.387E-01 1.578E-01

     total cpu time spent up to now is   221154.4 secs

     total energy              =   -2000.12063544 Ry
     estimated scf accuracy    <       0.00656714 Ry

     total magnetization       =     9.33 Bohr mag/cell
     absolute magnetization    =    31.10 Bohr mag/cell

     iteration # 54     ecut=    60.00 Ry     beta= 0.40
     Davidson diagonalization with overlap

---- Real-time Memory Report at c_bands before calling an iterative solver
           319 MiB given to the printing process from OS
           189 MiB allocation reported by mallinfo(arena+hblkhd)
        235404 MiB available memory on the node where the printing process lives
------------------
     c_bands:  1 eigenvalues not converged
     c_bands:  1 eigenvalues not converged
     c_bands:  1 eigenvalues not converged
     c_bands:  1 eigenvalues not converged
     c_bands:  2 eigenvalues not converged
     c_bands:  1 eigenvalues not converged
     c_bands:  1 eigenvalues not converged
     c_bands:  3 eigenvalues not converged
     c_bands:  2 eigenvalues not converged
     c_bands:  1 eigenvalues not converged
     c_bands:  1 eigenvalues not converged
     c_bands:  1 eigenvalues not converged
     c_bands:  2 eigenvalues not converged
     c_bands:  1 eigenvalues not converged
     c_bands:  1 eigenvalues not converged
     c_bands:  2 eigenvalues not converged
     ethr =  3.01E-06,  avg # of iterations = 12.1

     negative rho (up, down):  1.387E-01 1.577E-01

     total cpu time spent up to now is   225166.9 secs

     total energy              =   -2000.12320380 Ry
     estimated scf accuracy    <       0.01649687 Ry

     total magnetization       =     9.28 Bohr mag/cell
     absolute magnetization    =    31.63 Bohr mag/cell

     iteration # 55     ecut=    60.00 Ry     beta= 0.40
     Davidson diagonalization with overlap

---- Real-time Memory Report at c_bands before calling an iterative solver
           319 MiB given to the printing process from OS
           189 MiB allocation reported by mallinfo(arena+hblkhd)
        235403 MiB available memory on the node where the printing process lives
------------------
     c_bands:  1 eigenvalues not converged
     c_bands:  1 eigenvalues not converged
     c_bands:  2 eigenvalues not converged
     c_bands:  1 eigenvalues not converged
     c_bands:  1 eigenvalues not converged
     c_bands:  1 eigenvalues not converged
     c_bands:  1 eigenvalues not converged
     c_bands:  2 eigenvalues not converged
     ethr =  3.01E-06,  avg # of iterations =  9.2

     negative rho (up, down):  1.388E-01 1.583E-01

     total cpu time spent up to now is   228385.1 secs

     total energy              =   -2000.12458774 Ry
     estimated scf accuracy    <       0.00520297 Ry

     total magnetization       =     9.14 Bohr mag/cell
     absolute magnetization    =    31.87 Bohr mag/cell

     iteration # 56     ecut=    60.00 Ry     beta= 0.40
     Davidson diagonalization with overlap

---- Real-time Memory Report at c_bands before calling an iterative solver
           319 MiB given to the printing process from OS
           189 MiB allocation reported by mallinfo(arena+hblkhd)
        235388 MiB available memory on the node where the printing process lives
------------------
     c_bands:  1 eigenvalues not converged
     c_bands:  1 eigenvalues not converged
     c_bands:  1 eigenvalues not converged
     c_bands:  1 eigenvalues not converged
     c_bands:  1 eigenvalues not converged
     c_bands:  1 eigenvalues not converged
     c_bands:  1 eigenvalues not converged
     c_bands:  1 eigenvalues not converged
     c_bands:  1 eigenvalues not converged
     c_bands:  2 eigenvalues not converged
     c_bands:  1 eigenvalues not converged
     c_bands:  1 eigenvalues not converged
     c_bands:  1 eigenvalues not converged
     c_bands:  1 eigenvalues not converged
     c_bands:  2 eigenvalues not converged
     c_bands:  1 eigenvalues not converged
     c_bands:  1 eigenvalues not converged
     c_bands:  3 eigenvalues not converged
     c_bands:  1 eigenvalues not converged
     c_bands:  2 eigenvalues not converged
     c_bands:  1 eigenvalues not converged
     c_bands:  1 eigenvalues not converged
     ethr =  2.39E-06,  avg # of iterations = 14.5

     negative rho (up, down):  1.388E-01 1.581E-01

     total cpu time spent up to now is   232381.7 secs

     total energy              =   -2000.12630484 Ry
     estimated scf accuracy    <       0.00257072 Ry

     total magnetization       =     9.15 Bohr mag/cell
     absolute magnetization    =    32.33 Bohr mag/cell

     iteration # 57     ecut=    60.00 Ry     beta= 0.40
     Davidson diagonalization with overlap

---- Real-time Memory Report at c_bands before calling an iterative solver
           319 MiB given to the printing process from OS
           189 MiB allocation reported by mallinfo(arena+hblkhd)
        235350 MiB available memory on the node where the printing process lives
------------------
     c_bands:  1 eigenvalues not converged
     c_bands:  1 eigenvalues not converged
     c_bands:  1 eigenvalues not converged
     c_bands:  1 eigenvalues not converged
     c_bands:  1 eigenvalues not converged
     c_bands:  1 eigenvalues not converged
     c_bands:  1 eigenvalues not converged
     ethr =  1.18E-06,  avg # of iterations =  4.8

     negative rho (up, down):  1.388E-01 1.582E-01

     total cpu time spent up to now is   235276.8 secs

     total energy              =   -2000.12633309 Ry
     estimated scf accuracy    <       0.00121253 Ry

     total magnetization       =     9.17 Bohr mag/cell
     absolute magnetization    =    32.23 Bohr mag/cell

     iteration # 58     ecut=    60.00 Ry     beta= 0.40
     Davidson diagonalization with overlap

---- Real-time Memory Report at c_bands before calling an iterative solver
           319 MiB given to the printing process from OS
           189 MiB allocation reported by mallinfo(arena+hblkhd)
        235335 MiB available memory on the node where the printing process lives
------------------
     ethr =  5.56E-07,  avg # of iterations =  4.4

     negative rho (up, down):  1.387E-01 1.582E-01

     total cpu time spent up to now is   238165.4 secs

     total energy              =   -2000.12649638 Ry
     estimated scf accuracy    <       0.00051590 Ry

     total magnetization       =     9.14 Bohr mag/cell
     absolute magnetization    =    32.21 Bohr mag/cell

     iteration # 59     ecut=    60.00 Ry     beta= 0.40
     Davidson diagonalization with overlap

---- Real-time Memory Report at c_bands before calling an iterative solver
           319 MiB given to the printing process from OS
           189 MiB allocation reported by mallinfo(arena+hblkhd)
        235236 MiB available memory on the node where the printing process lives
------------------
     ethr =  2.37E-07,  avg # of iterations =  2.8

     negative rho (up, down):  1.387E-01 1.583E-01

     total cpu time spent up to now is   241158.1 secs

     total energy              =   -2000.12656186 Ry
     estimated scf accuracy    <       0.00017667 Ry

     total magnetization       =     9.15 Bohr mag/cell
     absolute magnetization    =    32.23 Bohr mag/cell

     iteration # 60     ecut=    60.00 Ry     beta= 0.40
     Davidson diagonalization with overlap

---- Real-time Memory Report at c_bands before calling an iterative solver
           319 MiB given to the printing process from OS
           189 MiB allocation reported by mallinfo(arena+hblkhd)
        233116 MiB available memory on the node where the printing process lives
------------------
     c_bands:  2 eigenvalues not converged
     c_bands:  1 eigenvalues not converged
     c_bands:  1 eigenvalues not converged
     c_bands:  1 eigenvalues not converged
     ethr =  8.10E-08,  avg # of iterations =  6.2

     negative rho (up, down):  1.387E-01 1.583E-01

     total cpu time spent up to now is   244700.5 secs

     total energy              =   -2000.12663688 Ry
     estimated scf accuracy    <       0.00007192 Ry

     total magnetization       =     9.14 Bohr mag/cell
     absolute magnetization    =    32.29 Bohr mag/cell

     iteration # 61     ecut=    60.00 Ry     beta= 0.40
     Davidson diagonalization with overlap

---- Real-time Memory Report at c_bands before calling an iterative solver
           319 MiB given to the printing process from OS
           189 MiB allocation reported by mallinfo(arena+hblkhd)
        233065 MiB available memory on the node where the printing process lives
------------------
     c_bands:  1 eigenvalues not converged
     ethr =  3.30E-08,  avg # of iterations =  4.6

     negative rho (up, down):  1.387E-01 1.583E-01

     total cpu time spent up to now is   247920.0 secs

     total energy              =   -2000.12664762 Ry
     estimated scf accuracy    <       0.00015383 Ry

     total magnetization       =     9.12 Bohr mag/cell
     absolute magnetization    =    32.28 Bohr mag/cell

     iteration # 62     ecut=    60.00 Ry     beta= 0.40
     Davidson diagonalization with overlap

---- Real-time Memory Report at c_bands before calling an iterative solver
           319 MiB given to the printing process from OS
           189 MiB allocation reported by mallinfo(arena+hblkhd)
        233076 MiB available memory on the node where the printing process lives
------------------
     ethr =  3.30E-08,  avg # of iterations =  2.9

     negative rho (up, down):  1.387E-01 1.583E-01

     total cpu time spent up to now is   250805.1 secs

     total energy              =   -2000.12666456 Ry
     estimated scf accuracy    <       0.00003185 Ry

     total magnetization       =     9.14 Bohr mag/cell
     absolute magnetization    =    32.29 Bohr mag/cell

     iteration # 63     ecut=    60.00 Ry     beta= 0.40
     Davidson diagonalization with overlap

---- Real-time Memory Report at c_bands before calling an iterative solver
           319 MiB given to the printing process from OS
           189 MiB allocation reported by mallinfo(arena+hblkhd)
        233051 MiB available memory on the node where the printing process lives
------------------
     ethr =  1.46E-08,  avg # of iterations =  4.0

     negative rho (up, down):  1.387E-01 1.583E-01

     total cpu time spent up to now is   253947.3 secs

     total energy              =   -2000.12667243 Ry
     estimated scf accuracy    <       0.00000617 Ry

     total magnetization       =     9.13 Bohr mag/cell
     absolute magnetization    =    32.30 Bohr mag/cell

     iteration # 64     ecut=    60.00 Ry     beta= 0.40
     Davidson diagonalization with overlap

---- Real-time Memory Report at c_bands before calling an iterative solver
           319 MiB given to the printing process from OS
           189 MiB allocation reported by mallinfo(arena+hblkhd)
        233019 MiB available memory on the node where the printing process lives
------------------
     c_bands:  3 eigenvalues not converged
     c_bands:  1 eigenvalues not converged
     ethr =  2.83E-09,  avg # of iterations =  6.3

     negative rho (up, down):  1.387E-01 1.583E-01

     total cpu time spent up to now is   257389.2 secs

     total energy              =   -2000.12667308 Ry
     estimated scf accuracy    <       0.00000897 Ry

     total magnetization       =     9.13 Bohr mag/cell
     absolute magnetization    =    32.30 Bohr mag/cell

     iteration # 65     ecut=    60.00 Ry     beta= 0.40
     Davidson diagonalization with overlap

---- Real-time Memory Report at c_bands before calling an iterative solver
           319 MiB given to the printing process from OS
           189 MiB allocation reported by mallinfo(arena+hblkhd)
        232893 MiB available memory on the node where the printing process lives
------------------
     ethr =  2.83E-09,  avg # of iterations =  3.4

     negative rho (up, down):  1.387E-01 1.583E-01

     total cpu time spent up to now is   260395.6 secs

     total energy              =   -2000.12667487 Ry
     estimated scf accuracy    <       0.00000799 Ry

     total magnetization       =     9.13 Bohr mag/cell
     absolute magnetization    =    32.31 Bohr mag/cell

     iteration # 66     ecut=    60.00 Ry     beta= 0.40
     Davidson diagonalization with overlap

---- Real-time Memory Report at c_bands before calling an iterative solver
           319 MiB given to the printing process from OS
           189 MiB allocation reported by mallinfo(arena+hblkhd)
        232912 MiB available memory on the node where the printing process lives
------------------
     ethr =  2.83E-09,  avg # of iterations =  3.1

     negative rho (up, down):  1.387E-01 1.583E-01

     total cpu time spent up to now is   263369.4 secs

     total energy              =   -2000.12667640 Ry
     estimated scf accuracy    <       0.00000409 Ry

     total magnetization       =     9.13 Bohr mag/cell
     absolute magnetization    =    32.30 Bohr mag/cell

[...]
                                0.00      0.00      0.00

     MDB     stress (kbar)      0.00      0.00      0.00
                                0.00      0.00      0.00
                                0.00      0.00      0.00

     3D-RISM stress (kbar)      0.00      0.00      0.00
                                0.00      0.00      0.00
                                0.00      0.00      0.00

     Energy error            =      6.2E-02 Ry
     Gradient error          =      6.9E-02 Ry/Bohr

     number of scf cycles    =   6
     number of bfgs steps    =   5

     energy             old  =   -2000.5462135977 Ry
     energy             new  =   -2000.6084316708 Ry

     CASE: energy            _new < energy            _old

     new trust radius        =       0.0464114144 bohr
     new conv_thr            =       0.0000000048 Ry


ATOMIC_POSITIONS (crystal)
Cr           -0.0001422023        0.0001422023        0.0271067457
Cr           -0.0000900283        0.0000900283        0.2679231438
Cr           -0.0001287371        0.5000292980        0.1491516723
Cr            0.4999707020        0.0001287371        0.1491516723
Cr            0.4999183912        0.5000816088        0.0255364773
Cr            0.4999494513        0.5000505487        0.2771765422
N             0.0001357367        0.4998546584        0.0248068997
N             0.0000956844        0.4998646999        0.2694544174
N             0.0000264552       -0.0000264552        0.1473983992
N             0.5000045111        0.4999954889        0.1396178325
N             0.5001453416       -0.0001357367        0.0248068997
N             0.5001353001       -0.0000956844        0.2694544174
W             0.1663202546        0.3334106396        0.6514150554
W             0.1668389168        0.8331610832        0.6515019756
W             0.6669468858        0.3330531142        0.6515145612
W             0.6665893604        0.8336797454        0.6514150554
S             0.3330680945        0.1671788084        0.5416154129
S             0.3337397473        0.6662602527        0.5414347002
S             0.8336721242        0.1663278758        0.5413891123
S             0.8328211916        0.6669319055        0.5416154129
S             0.3328716720        0.1671320164        0.7613421143
S             0.3337756536        0.6662243464        0.7614833135
S             0.8337995096        0.1662004904        0.7616180526
S             0.8328679836        0.6671283280        0.7613421143



     Writing config-only to output data dir ../out/aiida.save/
     NEW-OLD atomic charge density approx. for the potential

     Check: negative core charge=   -0.000004

     negative rho (up, down):  1.386E-01 1.521E-01
     Generating pointlists ...

     total cpu time spent up to now is  1007364.2 secs

     per-process dynamical memory:   195.4 Mb

     Self-consistent Calculation

     iteration #  1     ecut=    60.00 Ry     beta= 0.40
     Davidson diagonalization with overlap

---- Real-time Memory Report at c_bands before calling an iterative solver
           321 MiB given to the printing process from OS
           190 MiB allocation reported by mallinfo(arena+hblkhd)
        202327 MiB available memory on the node where the printing process lives
------------------
     c_bands:  1 eigenvalues not converged
     c_bands:  1 eigenvalues not converged
     c_bands:  1 eigenvalues not converged
     c_bands:  1 eigenvalues not converged
     c_bands:  1 eigenvalues not converged
     c_bands:  1 eigenvalues not converged
     c_bands:  1 eigenvalues not converged
     c_bands:  1 eigenvalues not converged
     c_bands:  1 eigenvalues not converged
     ethr =  1.00E-06,  avg # of iterations =  9.9

     negative rho (up, down):  1.386E-01 1.520E-01

     total cpu time spent up to now is  1020471.0 secs

     total energy              =   -2000.60525591 Ry
     estimated scf accuracy    <       0.01611344 Ry

     total magnetization       =     7.61 Bohr mag/cell
     absolute magnetization    =    24.24 Bohr mag/cell

     iteration #  2     ecut=    60.00 Ry     beta= 0.40
     Davidson diagonalization with overlap

---- Real-time Memory Report at c_bands before calling an iterative solver
           321 MiB given to the printing process from OS
           190 MiB allocation reported by mallinfo(arena+hblkhd)
        202856 MiB available memory on the node where the printing process lives
------------------
     c_bands:  1 eigenvalues not converged
     c_bands:  2 eigenvalues not converged
     c_bands:  2 eigenvalues not converged
     c_bands:  3 eigenvalues not converged
     c_bands:  1 eigenvalues not converged
     c_bands:  1 eigenvalues not converged
     c_bands:  3 eigenvalues not converged
     c_bands:  2 eigenvalues not converged
     c_bands:  2 eigenvalues not converged
     c_bands:  1 eigenvalues not converged
     c_bands:  1 eigenvalues not converged
     c_bands:  1 eigenvalues not converged
     c_bands:  1 eigenvalues not converged
     c_bands:  1 eigenvalues not converged
     c_bands:  1 eigenvalues not converged
     c_bands:  1 eigenvalues not converged
     c_bands:  1 eigenvalues not converged
     c_bands:  1 eigenvalues not converged
     c_bands:  3 eigenvalues not converged
     c_bands:  2 eigenvalues not converged
     c_bands:  2 eigenvalues not converged
     c_bands:  2 eigenvalues not converged
     c_bands:  1 eigenvalues not converged
     c_bands:  1 eigenvalues not converged
     c_bands:  1 eigenvalues not converged
     c_bands:  2 eigenvalues not converged
     c_bands:  1 eigenvalues not converged
     c_bands:  3 eigenvalues not converged
     c_bands:  2 eigenvalues not converged
     c_bands:  2 eigenvalues not converged
     c_bands:  1 eigenvalues not converged
     c_bands:  2 eigenvalues not converged
     c_bands:  1 eigenvalues not converged
     c_bands:  3 eigenvalues not converged
     c_bands:  2 eigenvalues not converged
     c_bands:  1 eigenvalues not converged
     c_bands:  1 eigenvalues not converged
     ethr =  7.39E-06,  avg # of iterations = 17.3

     negative rho (up, down):  1.386E-01 1.520E-01

     total cpu time spent up to now is  1030722.7 secs

     total energy              =   -2000.59803849 Ry
     estimated scf accuracy    <       0.17773748 Ry

     total magnetization       =     7.28 Bohr mag/cell
     absolute magnetization    =    24.45 Bohr mag/cell

     iteration #  3     ecut=    60.00 Ry     beta= 0.40
     Davidson diagonalization with overlap

---- Real-time Memory Report at c_bands before calling an iterative solver
           321 MiB given to the printing process from OS
           190 MiB allocation reported by mallinfo(arena+hblkhd)
        202758 MiB available memory on the node where the printing process lives
------------------
     c_bands:  4 eigenvalues not converged
     c_bands:  3 eigenvalues not converged
     c_bands:  1 eigenvalues not converged
     c_bands:  3 eigenvalues not converged
     c_bands:  3 eigenvalues not converged
     c_bands:  2 eigenvalues not converged
     c_bands:  1 eigenvalues not converged
     c_bands:  1 eigenvalues not converged
     c_bands:  2 eigenvalues not converged
     c_bands:  3 eigenvalues not converged
     c_bands:  1 eigenvalues not converged
     ethr =  7.39E-06,  avg # of iterations = 12.4

     negative rho (up, down):  1.386E-01 1.520E-01

     total cpu time spent up to now is  1040230.7 secs

     total energy              =   -2000.61159301 Ry
     estimated scf accuracy    <       0.01097023 Ry

     total magnetization       =     7.65 Bohr mag/cell
     absolute magnetization    =    24.21 Bohr mag/cell

     iteration #  4     ecut=    60.00 Ry     beta= 0.40
     Davidson diagonalization with overlap

---- Real-time Memory Report at c_bands before calling an iterative solver
           321 MiB given to the printing process from OS
           190 MiB allocation reported by mallinfo(arena+hblkhd)
        203059 MiB available memory on the node where the printing process lives
------------------
     c_bands:  1 eigenvalues not converged
     c_bands:  1 eigenvalues not converged
     c_bands:  1 eigenvalues not converged
     ethr =  5.03E-06,  avg # of iterations =  3.7

     negative rho (up, down):  1.386E-01 1.520E-01

     total cpu time spent up to now is  1046497.8 secs

     total energy              =   -2000.61225236 Ry
     estimated scf accuracy    <       0.00256813 Ry

     total magnetization       =     7.47 Bohr mag/cell
     absolute magnetization    =    24.29 Bohr mag/cell

     iteration #  5     ecut=    60.00 Ry     beta= 0.40
     Davidson diagonalization with overlap

---- Real-time Memory Report at c_bands before calling an iterative solver
           321 MiB given to the printing process from OS
           190 MiB allocation reported by mallinfo(arena+hblkhd)
        202644 MiB available memory on the node where the printing process lives
------------------
     c_bands:  1 eigenvalues not converged
     c_bands:  1 eigenvalues not converged
     c_bands:  1 eigenvalues not converged
     ethr =  1.18E-06,  avg # of iterations =  8.7

     negative rho (up, down):  1.385E-01 1.519E-01

     total cpu time spent up to now is  1053836.1 secs

     total energy              =   -2000.61260014 Ry
     estimated scf accuracy    <       0.00060229 Ry

     total magnetization       =     7.56 Bohr mag/cell
     absolute magnetization    =    24.22 Bohr mag/cell

     iteration #  6     ecut=    60.00 Ry     beta= 0.40
     Davidson diagonalization with overlap

---- Real-time Memory Report at c_bands before calling an iterative solver
           321 MiB given to the printing process from OS
           190 MiB allocation reported by mallinfo(arena+hblkhd)
        201892 MiB available memory on the node where the printing process lives
------------------
     ethr =  2.76E-07,  avg # of iterations =  6.2

     negative rho (up, down):  1.385E-01 1.519E-01

     total cpu time spent up to now is  1060814.6 secs

     total energy              =   -2000.61255250 Ry
     estimated scf accuracy    <       0.00233187 Ry

     total magnetization       =     7.55 Bohr mag/cell
     absolute magnetization    =    24.19 Bohr mag/cell

     iteration #  7     ecut=    60.00 Ry     beta= 0.40
     Davidson diagonalization with overlap

---- Real-time Memory Report at c_bands before calling an iterative solver
           321 MiB given to the printing process from OS
           190 MiB allocation reported by mallinfo(arena+hblkhd)
        201316 MiB available memory on the node where the printing process lives
------------------
     ethr =  2.76E-07,  avg # of iterations =  4.6

     negative rho (up, down):  1.385E-01 1.518E-01

     total cpu time spent up to now is  1066889.0 secs

     total energy              =   -2000.61266027 Ry
     estimated scf accuracy    <       0.00057943 Ry

     total magnetization       =     7.50 Bohr mag/cell
     absolute magnetization    =    24.22 Bohr mag/cell

     iteration #  8     ecut=    60.00 Ry     beta= 0.40
     Davidson diagonalization with overlap

---- Real-time Memory Report at c_bands before calling an iterative solver
           321 MiB given to the printing process from OS
           190 MiB allocation reported by mallinfo(arena+hblkhd)
        201865 MiB available memory on the node where the printing process lives
------------------
     ethr =  2.66E-07,  avg # of iterations =  2.5

     negative rho (up, down):  1.385E-01 1.518E-01

     total cpu time spent up to now is  1072457.1 secs

     total energy              =   -2000.61269958 Ry
     estimated scf accuracy    <       0.00027150 Ry

     total magnetization       =     7.53 Bohr mag/cell
     absolute magnetization    =    24.21 Bohr mag/cell

     iteration #  9     ecut=    60.00 Ry     beta= 0.40
     Davidson diagonalization with overlap

---- Real-time Memory Report at c_bands before calling an iterative solver
           321 MiB given to the printing process from OS
           190 MiB allocation reported by mallinfo(arena+hblkhd)
        202573 MiB available memory on the node where the printing process lives
------------------
     ethr =  1.25E-07,  avg # of iterations =  2.1

     negative rho (up, down):  1.385E-01 1.518E-01

     total cpu time spent up to now is  1077951.5 secs

     total energy              =   -2000.61273019 Ry
     estimated scf accuracy    <       0.00006061 Ry

     total magnetization       =     7.50 Bohr mag/cell
     absolute magnetization    =    24.20 Bohr mag/cell

     iteration # 10     ecut=    60.00 Ry     beta= 0.40
     Davidson diagonalization with overlap

---- Real-time Memory Report at c_bands before calling an iterative solver
           321 MiB given to the printing process from OS
           190 MiB allocation reported by mallinfo(arena+hblkhd)
        202573 MiB available memory on the node where the printing process lives
------------------
     ethr =  2.78E-08,  avg # of iterations =  5.0

     negative rho (up, down):  1.385E-01 1.518E-01

     total cpu time spent up to now is  1084263.7 secs

     total energy              =   -2000.61274476 Ry
     estimated scf accuracy    <       0.00004278 Ry

     total magnetization       =     7.50 Bohr mag/cell
     absolute magnetization    =    24.17 Bohr mag/cell

     iteration # 11     ecut=    60.00 Ry     beta= 0.40
     Davidson diagonalization with overlap

---- Real-time Memory Report at c_bands before calling an iterative solver
           321 MiB given to the printing process from OS
           190 MiB allocation reported by mallinfo(arena+hblkhd)
        202417 MiB available memory on the node where the printing process lives
------------------
     ethr =  1.96E-08,  avg # of iterations =  3.5

     negative rho (up, down):  1.385E-01 1.518E-01

     total cpu time spent up to now is  1090739.0 secs

     total energy              =   -2000.61275254 Ry
     estimated scf accuracy    <       0.00001941 Ry

     total magnetization       =     7.49 Bohr mag/cell
     absolute magnetization    =    24.18 Bohr mag/cell

     iteration # 12     ecut=    60.00 Ry     beta= 0.40
     Davidson diagonalization with overlap

---- Real-time Memory Report at c_bands before calling an iterative solver
           321 MiB given to the printing process from OS
           190 MiB allocation reported by mallinfo(arena+hblkhd)
        202856 MiB available memory on the node where the printing process lives
------------------
     ethr =  8.90E-09,  avg # of iterations =  3.6

     negative rho (up, down):  1.385E-01 1.518E-01

     total cpu time spent up to now is  1097370.8 secs

     total energy              =   -2000.61275600 Ry
     estimated scf accuracy    <       0.00001798 Ry

     total magnetization       =     7.49 Bohr mag/cell
     absolute magnetization    =    24.16 Bohr mag/cell

     iteration # 13     ecut=    60.00 Ry     beta= 0.40
     Davidson diagonalization with overlap

---- Real-time Memory Report at c_bands before calling an iterative solver
           321 MiB given to the printing process from OS
           190 MiB allocation reported by mallinfo(arena+hblkhd)
        202031 MiB available memory on the node where the printing process lives
------------------
     ethr =  8.25E-09,  avg # of iterations =  2.9

     negative rho (up, down):  1.385E-01 1.517E-01

     total cpu time spent up to now is  1103721.3 secs

     total energy              =   -2000.61276202 Ry
     estimated scf accuracy    <       0.00000863 Ry

     total magnetization       =     7.48 Bohr mag/cell
     absolute magnetization    =    24.16 Bohr mag/cell

     iteration # 14     ecut=    60.00 Ry     beta= 0.40
     Davidson diagonalization with overlap

---- Real-time Memory Report at c_bands before calling an iterative solver
           321 MiB given to the printing process from OS
           190 MiB allocation reported by mallinfo(arena+hblkhd)
        202323 MiB available memory on the node where the printing process lives
------------------
     ethr =  3.96E-09,  avg # of iterations =  6.0

     negative rho (up, down):  1.385E-01 1.517E-01

     total cpu time spent up to now is  1111888.8 secs

     total energy              =   -2000.61276904 Ry
     estimated scf accuracy    <       0.00002883 Ry

     total magnetization       =     7.47 Bohr mag/cell
     absolute magnetization    =    24.12 Bohr mag/cell

     iteration # 15     ecut=    60.00 Ry     beta= 0.40
     Davidson diagonalization with overlap

---- Real-time Memory Report at c_bands before calling an iterative solver
           321 MiB given to the printing process from OS
           190 MiB allocation reported by mallinfo(arena+hblkhd)
        202343 MiB available memory on the node where the printing process lives
------------------
     ethr =  3.96E-09,  avg # of iterations =  5.0

     negative rho (up, down):  1.385E-01 1.517E-01

     total cpu time spent up to now is  1118732.0 secs

     total energy              =   -2000.61277216 Ry
     estimated scf accuracy    <       0.00000262 Ry

     total magnetization       =     7.47 Bohr mag/cell
     absolute magnetization    =    24.12 Bohr mag/cell

     iteration # 16     ecut=    60.00 Ry     beta= 0.40
     Davidson diagonalization with overlap

---- Real-time Memory Report at c_bands before calling an iterative solver
           321 MiB given to the printing process from OS
           190 MiB allocation reported by mallinfo(arena+hblkhd)
        202512 MiB available memory on the node where the printing process lives
------------------
     ethr =  1.20E-09,  avg # of iterations =  5.6

     negative rho (up, down):  1.385E-01 1.517E-01

     total cpu time spent up to now is  1126023.7 secs

     total energy              =   -2000.61277347 Ry
     estimated scf accuracy    <       0.00000498 Ry

     total magnetization       =     7.46 Bohr mag/cell
     absolute magnetization    =    24.12 Bohr mag/cell

     iteration # 17     ecut=    60.00 Ry     beta= 0.40
     Davidson diagonalization with overlap

---- Real-time Memory Report at c_bands before calling an iterative solver
           321 MiB given to the printing process from OS
           190 MiB allocation reported by mallinfo(arena+hblkhd)
        202493 MiB available memory on the node where the printing process lives
------------------
     ethr =  1.20E-09,  avg # of iterations =  6.3

     negative rho (up, down):  1.385E-01 1.517E-01

     total cpu time spent up to now is  1133916.0 secs

     total energy              =   -2000.61277493 Ry
     estimated scf accuracy    <       0.00003634 Ry

     total magnetization       =     7.46 Bohr mag/cell
     absolute magnetization    =    24.10 Bohr mag/cell

     iteration # 18     ecut=    60.00 Ry     beta= 0.40
     Davidson diagonalization with overlap

---- Real-time Memory Report at c_bands before calling an iterative solver
           321 MiB given to the printing process from OS
           190 MiB allocation reported by mallinfo(arena+hblkhd)
        202259 MiB available memory on the node where the printing process lives
------------------
     ethr =  1.20E-09,  avg # of iterations =  5.8

     negative rho (up, down):  1.385E-01 1.517E-01

     total cpu time spent up to now is  1141158.3 secs

     total energy              =   -2000.61277669 Ry
     estimated scf accuracy    <       0.00000147 Ry

     total magnetization       =     7.45 Bohr mag/cell
     absolute magnetization    =    24.10 Bohr mag/cell

     iteration # 19     ecut=    60.00 Ry     beta= 0.40
     Davidson diagonalization with overlap

---- Real-time Memory Report at c_bands before calling an iterative solver
           321 MiB given to the printing process from OS
           190 MiB allocation reported by mallinfo(arena+hblkhd)
        199701 MiB available memory on the node where the printing process lives
------------------
