 --invoking executable--
/opt/cfour/2.1/bin/xjoda


   *************************************************************************
         <<<     CCCCCC     CCCCCC   |||     CCCCCC     CCCCCC   >>>
       <<<      CCC        CCC       |||    CCC        CCC         >>>
      <<<      CCC        CCC        |||   CCC        CCC            >>>
    <<<        CCC        CCC        |||   CCC        CCC              >>>
      <<<      CCC        CCC        |||   CCC        CCC            >>>
       <<<      CCC        CCC       |||    CCC        CCC         >>>
         <<<     CCCCCC     CCCCCC   |||     CCCCCC     CCCCCC   >>>
   *************************************************************************

     ****************************************************************
     * CFOUR Coupled-Cluster techniques for Computational Chemistry *
     ****************************************************************


   Department of Chemistry                Institut fuer Physikalische Chemie
   University of Florida                  Universitaet Mainz
   Gainesville, FL 32611, USA             D-55099 Mainz, Germany

   Department of Chemistry                Fakultaet fuer Chemie und Biowiss.
   Johns Hopkins University               Karlsruher Institut fuer Technologie
   Baltimore, MD 21218, USA               D-76131 Karlsruhe, Germany

   Department of Chemistry                Department of Physical Chemistry
   Southern Methodist University          Eotvos Lorand University
   Dallas, TX 75275, USA                  H-1053 Budapest, Hungary


                       Version 2.1

                     node011                                           
                     Tue 04 Mar 2025 02:21:17 PM PST                   
                     integer*8 version is running

********************************************************************************
*                          Input from ZMAT file                                *
********************************************************************************
Optimization on FeCO5                                                           
Fe                                                                              
C 1 rFeCAx*                                                                     
C 1 rFeCEq* 2 a90                                                               
C 1 rFeCEq* 3 a120 2 dn90                                                       
C 1 rFeCEq* 3 a120 2 d90                                                        
C 1 rFeCAx* 3 a90 4 dn90                                                        
O 1 rFeOAx* 3 a90 4 d90                                                         
O 1 rFeOAx* 3 a90 4 dn90                                                        
O 1 rFeOEq* 2 a90 3 d0                                                          
O 1 rFeOEq* 2 a90 4 d0                                                          
O 1 rFeOEq* 2 a90 5 d0                                                          
                                                                                
rFeCAx =    1.85014                                                             
rFeCEq =    1.83281                                                             
rFeOAx =    2.99436                                                             
rFeOEq =    2.98198                                                             
a90    =   90.00000                                                             
a120   =  120.00000                                                             
dn90   =  -90.00000                                                             
d0     =    0.00000                                                             
d90    =   90.00000                                                             
                                                                                
*ACES2(CALC = CCSD(T)                                                           
      BASIS = SPECIAL                                                           
FROZEN_CORE = ON)                                                               
                                                                                
Fe:cc-pVDZ                                                                      
C:cc-pVDZ                                                                       
C:cc-pVDZ                                                                       
C:cc-pVDZ                                                                       
C:cc-pVDZ                                                                       
C:cc-pVDZ                                                                       
O:cc-pVDZ                                                                       
O:cc-pVDZ                                                                       
O:cc-pVDZ                                                                       
O:cc-pVDZ                                                                       
O:cc-pVDZ                                                                       
                                                                                
********************************************************************************
    -------------------------------------------------------------------
                    CFOUR Control Parameters 
    -------------------------------------------------------------------
        External           Internal           Value            Units
          Name               Name
    -------------------------------------------------------------------
       ABCDTYPE             IABCDT         STANDARD    [  0]    ***   
       ANHARMONIC           IANHAR         OFF         [  0]    ***   
       ANH_ALGORIT          IANALG         STANDARD    [  0]    ***   
       ANH_DERIVAT          IANDER         SECOND      [  1]    ***   
       ANH_MODE             ANHMOD         VIBRATION   [  0]    ***   
       ANH_STEPSIZ          ICUBST             50000          x 10-6  
       ANH_SYMMETR          IANHSM         ABELIAN     [  0]    ***   
       AO_LADDERS           IAOLAD         SINGLEPASS  [  1]    ***   
       AV_SCF               IAVSCF         OFF         [  0]    ***   
       BASIS                IBASIS         SPECIAL     [  0]    ***   
       BOTHVECTORS          BOTHVC         OFF         [  0]    ***   
       BOX_POTENT           IPIAB          OFF         [  0]    ***   
       BREIT                IBREIT         OFF         [  0]    ***   
       BRUCK_CONV           IBRTOL          10D-  4             ***   
       BRUECKNER            IBRKNR         OFF         [  0]    ***   
       BUFFERSIZE           IBUFFS              4096            ***   
       CACHE_RECS           ICHREC             10               ***   
       CALCLEVEL            ICLLVL         CCSD(T)     [ 22]    ***   
       CCORBOPT             ICCORB         OFF         [  0]  x 0.01  
       CC_CONV              ICCCNV          10D-  7             ***   
       CC_EXPORDER          ICCEOR              5               ***   
       CC_EXTRAPOL          ICCEXT         DIIS        [  1]    ***   
       CC_GUESS             ICCGES         MP2         [  0]    ***   
       CC_MAXCYC            ICCCYC            100              cycles 
       CC_PROGRAM           ICCPRO         VCC         [  0]    ***   
       CHARGE               ICHRGE              0               ***   
       CHOLESKY             ICHOLE         OFF         [  0]    ***   
       CIS_CONV             ICISTL              5               ***   
       COMM_SIZE            IPSIZE            ***               ***   
       CONSTANT             ICONST         OLD         [  1]    ***   
       CONTINUUM            ICONTU         NONE        [  0]    ***   
       CONTRACTION          ICNTYP         GENERAL     [  1]    ***   
       COORDINATES          ICOORD         INTERNAL    [  0]    ***   
       CPHF_CONVER          ICPHFT          10D- 16             ***   
       CPHF_MAXCYC          ICPHFC             64              cycles 
       CUBIC                ICUBIC         OFF         [  0]    ***   
       CURVILINEAR          ICURVY         OFF         [  0]    ***   
       DBOC                 IDBOC          OFF         [  0]    ***   
       DCT                  IDCT           OFF         [  0]    ***   
       DERIV_LEV            IDRLVL         FIRST       [  1]    ***   
       DEVMEM_SIZE          IDVMEM          50000000           MByte  
       DIAG_MRCC            IEOMST          10D-  0             ***   
       DIFF_TYPE            IDIFTY         RELAXED     [  0]    ***   
       DIRECT               IDIRCT         OFF         [  0]    ***   
       DROPMO               IDRPMO      NONE         
       ECP                  IECP           OFF         [  0]    ***   
       EIGENVECTOR          IVEC                1               ***   
       EL_ANHARM            IELANH         OFF         [  0]    ***   
       EOMFOLLOW            IEOMSR         ENERGY      [  0]    ***   
       EOMIP                IEOMIP         OFF         [  0]    ***   
       EOMLEVEL             HBARFM         SAME        [  0]    ***   
       EOM_MRCC             IMRCCE         NEW         [  1]    ***   
       EOM_NONIT            EOMNON         OFF         [  0]    ***   
       EOM_NSING            IEOMSI          10D-  0             ***   
       EOM_NSTATES          IMRCCD         DAVIDSON    [  0]    ***   
       EOM_NTRIP            IEOMTR          10D-  0             ***   
       EOM_ORDER            IEXORD         ENERGY      [  0]    ***   
       EOM_PROPSTA          IEOMST              0               ***   
       ESTATE_CONV          IEXTOL          10D-  5             ***   
       ESTATE_DIAG          IEXDIG         ITERATIVE   [  0]    ***   
       ESTATE_LOCK          IESLOC         ON          [  1]    ***   
       ESTATE_MAXC          IEXMXC             40               ***   
       ESTATE_PROP          IEXPRP         OFF         [  0]    ***   
       EVAL_HESS            IRECAL              0            # of cyc.
       EXCITATION           IEXCIT              0               ***   
       EXCITE               IEXCIT         NONE        [  0]    ***   
       EXTERN_POT           IEXPOT         OFF         [  0]    ***   
       FCGRADNEW            IFCGNW         ON          [  1]    ***   
       FC_FIELD             IFINFC              0             x 10-6  
       FD_CALTYPE           IFDCAL         GRADONLY    [  0]    ***   
       FD_PROJECT           IFDPRJ         OFF         [  1]    ***   
       FD_STEPSIZE          IDISFD              0            10-4 bohr
       FD_USEGROUP          IFDGRP         FULL        [  0]    ***   
       FILE_RECSIZ          IFLREC              4096           words  
       FINITE_PERT          IFIPER              0             x 10-6  
       FIXGEOM              IFIXGM         OFF         [  0]    ***   
       FOCK                 IFOCK          AO          [  1]    ***   
       FREQ_ALGORI          IVIALG         STANDARD    [  0]    ***   
       FROZEN_CORE          IFROCO         ON          [  1]    ***   
       GAMMA_ABCD           IGABCD         STORE       [  0]    ***   
       GAMMA_ABCI           IGABCI         STORE       [  0]    ***   
       GENBAS_1             IGNBS1              0               ***   
       GENBAS_2             IGNBS2              0               ***   
       GENBAS_3             IGNBS3              0               ***   
       GENBAS_4             IGNBS4              0               ***   
       GEO_CONV             ICONTL              5              H/bohr 
       GEO_MAXCYC           IOPTCY             50               ***   
       GEO_MAXSTEP          IMXSTP            300            millibohr
       GEO_METHOD           INR            NR          [  0]    ***   
       GIAO                 IGIAO          OFF         [  1]    ***   
       GIMIC                IGIMIC         OFF         [  0]    ***   
       GRID                 IGRID          OFF         [  0]    ***   
       GRID_ALGO            IGALGO         SERIAL      [  0]    ***   
       GUESS                IGUESS         MOREAD      [  0]    ***   
       HBAR                 IHBAR          OFF         [  0]    ***   
       HESS_TYPE            IHESTP         SCF         [  0]    ***   
       HF2_FILE             IHF2Fl         USE         [  1]    ***   
       HFSTABILITY          ISTABL         OFF         [  0]    ***   
       INCORE               INCORE         OFF         [  0]    ***   
       INPUT_MRCC           IMRCC          ON          [  1]    ***   
       INTEGRALS            INTTYP         VMOL        [  1]    ***   
       JODA_PRINT           IJPRNT              0               ***   
       KEYWORD_OUT          IDMPKW         NO          [  0]    ***   
       LINDEP_TOL           ILINDP              8               ***   
       LINEQ_CONV           IZTACN          10D-  7           cycles  
       LINEQ_EXPOR          ILMAXD              5               ***   
       LINEQ_MAXCY          ILMAXC            100               ***   
       LINEQ_TYPE           ILTYPE         DIIS        [  1]    ***   
       LOCK_ORBOCC          ILOCOC         OFF         [  0]    ***   
       MEMORY_SIZE          IMEMSZ         100000000           words  
       MEM_UNIT             IMEMU          INTEGERWORDS[  0]    ***   
       MRCC                 IMRCCC         OFF         [  0]    ***   
       MULTIPLICTY          IMULTP              1               ***   
       NACOUPLING           IVCOUP         OFF         [  0]    ***   
       NEGEVAL              IDIE           ABORT       [  0]    ***   
       NEWNORM              INEWNO         OFF         [  0]    ***   
       NON-HF               INONHF         OFF         [  0]    ***   
       NTOP_TAMP            ITOPT2             15               ***   
       NUC_MODEL            INUCMO         POINT       [  0]    ***   
       OCCUPATION           IOCCU   ESTIMATED BY SCF 
       OPEN-SHELL           IOPEN          SPIN-ORBITAL[  0]    ***   
       OPTVIB               IOPTVB         OFF         [  0]    ***   
       ORBITALS             IORBTP         STANDARD    [  0]    ***   
       PARALLEL             IPARAL         ON          [  1]    ***   
       PARA_INT             IPINTS         ON          [  1]    ***   
       PARA_PRINT           IPPRIN              0               ***   
       PERT_ORB             IPTORB         CANONICAL   [  1]    ***   
       POINTS               IGRDFD              0               ***   
       PRINT                IPRNT               0               ***   
       PROPS                IPROPS         OFF         [  0]    ***   
       PROP_INTEGR          IINTYP         INTERNAL    [  0]    ***   
       PSI                  IPSI           OFF         [  0]    ***   
       QC_ALG               IQCALG         FLM         [  0]    ***   
       QC_LINALG            IQCLIN         TRIDIAG     [  2]    ***   
       QC_MAXCYC            IQCMAX          10D-100           cycles  
       QC_MAXSCFCY          IQCMSC          10D- 15           cycles  
       QC_RTRUST            IQCRTR          10D-  0           x 10-3  
       QC_SKIPSCF           IQCSKI         OFF         [  0]    ***   
       QC_START             IQCSTA          10D-  1             ***   
       QRHFGUESS            IQGUES         OFF         [  0]    ***   
       QUARTIC              IQUART         OFF         [  0]    ***   
       RAMAN_INT            IRAMIN         OFF         [  0]    ***   
       RAMAN_ORB            IRAMRE         UNRELAXED   [  0]    ***   
       RDO                  IRDOFM         ON          [  1]    ***   
       REDUCE_REPR          REDREP         Ir          [  0]    ***   
       REFERENCE            IREFNC         RHF         [  0]    ***   
       RELATIVIST           IRELAT         OFF         [  0]    ***   
       RELAX_DENS           IRDENS         ON          [  1]    ***   
       RESET_FLAGS          IRESET         OFF         [  0]    ***   
       RESTART_CC           ICCRES         OFF         [  0]    ***   
       ROT_EVEC             ROTVEC              0               ***   
       SAVE_INTS            ISVINT         OFF         [  0]    ***   
       SCALE_ON             ISTCRT              0               ***   
       SCF_CONV             ISCFCV          10D-  7             ***   
       SCF_DAMPING          IDAMP               0             x 10-3  
       SCF_EXPORDE          IRPPOR              6               ***   
       SCF_EXPSTAR          IRPPLS              8               ***   
       SCF_EXTRAPO          IRPP           ON          [  1]    ***   
       SCF_MAXCYC           ISCFCY            150              cycles 
       SCF_NOSTOP           ISCFST         OFF         [  0]    ***   
       SCF_PRINT            ISCFPR              0               ***   
       SCF_PROG             ISCFPR         SCF         [  0]    ***   
       SD_FIELD             IFINSD              0             x 10-6  
       SOPERT               IPERSO         OFF         [  0]    ***   
       SPHERICAL            IDFGHI         ON          [  1]    ***   
       SPINORBIT            ISOCAL         OFF         [  0]    ***   
       SPINROTATIO          ISRCON         OFF         [  0]    ***   
       SPIN_FLIP            ISPFLP         OFF         [  0]    ***   
       SPIN_ORBIT           ISPORB         OFF         [  0]    ***   
       SPIN_SCAL            ISCSMP         OFF         [  0]    ***   
       STEEPSCALE           ISTPSC              1000          x 10-3  
       SUBGROUP             ISUBGP         DEFAULT     [  0]    ***   
       SUBGRPAXIS           ISBXYZ         X           [  0]    ***   
       SYMMETRY             ISYM           ON          [  0]    ***   
       SYM_CHECK            ISYMCK         OVERRIDE    [  1]    ***   
       T3_EXTRAPOL          IT3EXT         OFF         [  0]    ***   
       T4_EXTRAPOL          IT4EXP         OFF         [  0]    ***   
       TAMP_SUM             IEVERY              5               ***   
       TESTSUITE            ITESTS         OFF         [  0]    ***   
       THERMOCH             ITHERM         OFF         [  0]    ***   
       TOL_CHOLESK          ITOLCH          10D-  4             ***   
       TRANGRAD             IRESRM         OFF         [  0]    ***   
       TRANS_INV            ITRAIN         USE         [  0]    ***   
       TREAT_PERT           ITREAT         SIMULTANEOUS[  0]    ***   
       TRIP_ALGORI          ITRALG         NORMAL      [  0]    ***   
       UIJ_THRESHO          IUIJTH              1               ***   
       UNITS                IUNITS         ANGSTROM    [  0]    ***   
       UNOS                 IUNOS          OFF         [  0]    ***   
       UPDATE_HESS          IHUPDT         ON          [  1]    ***   
       VIBPHASE             ISETPH         STANDARD    [  0]    ***   
       VIBRATION            IVIB           NO          [  0]    ***   
       VIB_ALGORIT          IGEALG         STANDARD    [  0]    ***   
       VNATORB              IVNORB         OFF         [  0]    ***   
       VTRAN                IVTRAN         FULL/PARTIAL[  0]    ***   
       XFIELD               IXEFLD              0             x 10-6  
       XFORM_TOL            IXFTOL          10D- 11             ***   
       YFIELD               IYEFLD              0             x 10-6  
       ZFIELD               IZEFLD              0             x 10-6  
       ZSCALE_EXP           IZEXPS         OFF         [  0]    ***   
    -------------------------------------------------------------------
  11 entries found in Z-matrix 
   Job Title : Optimization on FeCO5                                                           
   There are  9 unique internal coordinates.
   Of these,  4 will be optimized.
   User supplied Z-matrix: 
--------------------------------------------------------------------------------
       SYMBOL    BOND      LENGTH    ANGLE     ANGLE     DIHED     ANGLE
                  TO      (ANGST)    WRT      (DEG)      WRT      (DEG)
--------------------------------------------------------------------------------
        Fe   
        C          1         rFeCA
        C          1         rFeCE      2        a90  
        C          1         rFeCE      3        a120       2        dn90 
        C          1         rFeCE      3        a120       2        d90  
        C          1         rFeCA      3        a90        4        dn90 
        O          1         rFeOA      3        a90        4        d90  
        O          1         rFeOA      3        a90        4        dn90 
        O          1         rFeOE      2        a90        3        d0   
        O          1         rFeOE      2        a90        4        d0   
        O          1         rFeOE      2        a90        5        d0   
                  *Initial values for internal coordinates* 
                      Name             Value
                        rFeCA           1.8501400000
                        rFeCE           1.8328100000
                        a90            90.0000000000
                        a120          120.0000000000
                        dn90          -90.0000000000
                        d90            90.0000000000
                        rFeOA           2.9943600000
                        rFeOE           2.9819800000
                        d0              0.0000000000
--------------------------------------------------------------------------------
   Rotational constants (in cm-1): 
          0.0262257244             0.0262257244             0.0307833858
   Rotational constants (in MHz): 
        786.2275495055           786.2275495055           922.8628183399
********************************************************************************
   The full molecular point group is D3h .
   The largest Abelian subgroup of the full molecular point group is C2v .
   The computational point group is C2v .
********************************************************************************
--------------------------------------------------------------------------------
   Analysis of internal coordinates specified by Z-matrix 
--------------------------------------------------------------------------------
   *The nuclear repulsion energy is  793.306930884719918 a.u.
   *There are   4 degrees of freedom within the tot. symm. molecular subspace.
   *Z-matrix requests optimization of   4 coordinates.
   *The optimization is unconstrained and your Z-matrix is great.
--------------------------------------------------------------------------------


 ----------------------------------------------------------------
         Coordinates used in calculation (QCOMP) 
 ----------------------------------------------------------------
 Z-matrix   Atomic            Coordinates (in bohr)
  Symbol    Number           X              Y              Z
 ----------------------------------------------------------------
     FE       26         0.00000000     0.00000000     0.00000000
     C         6         0.00000000    -3.49625862    -0.00000000
     C         6        -2.99948736     0.00000000    -1.73175483
     C         6        -0.00000000    -0.00000000     3.46350966
     C         6         2.99948736     0.00000000    -1.73175483
     C         6        -0.00000000     3.49625862     0.00000000
     O         8         0.00000000    -5.65852150    -0.00000000
     O         8        -0.00000000     5.65852150     0.00000000
     O         8        -4.88016287     0.00000000    -2.81756335
     O         8         0.00000000    -0.00000000     5.63512669
     O         8         4.88016287    -0.00000000    -2.81756335
 ----------------------------------------------------------------

   Interatomic distance matrix (Angstroms) 

                 FE            C             C             C             C    
                [ 1]        [ 2]        [ 3]        [ 4]        [ 5]
  FE   [ 1]     0.00000
  C    [ 2]     1.85014     0.00000
  C    [ 3]     1.83281     2.60427     0.00000
  C    [ 4]     1.83281     2.60427     3.17452     0.00000
  C    [ 5]     1.83281     2.60427     3.17452     3.17452     0.00000
  C    [ 6]     1.85014     3.70028     2.60427     2.60427     2.60427
  O    [ 7]     2.99436     1.14422     3.51075     3.51075     3.51075
  O    [ 8]     2.99436     4.84450     3.51075     3.51075     3.51075
  O    [ 9]     2.98198     3.50931     1.14917     4.20913     4.20913
  O    [10]     2.98198     3.50931     4.20913     1.14917     4.20913
  O    [11]     2.98198     3.50931     4.20913     4.20913     1.14917

                 C             O             O             O             O    
                [ 6]        [ 7]        [ 8]        [ 9]        [10]
  C    [ 6]     0.00000
  O    [ 7]     4.84450     0.00000
  O    [ 8]     1.14422     5.98872     0.00000
  O    [ 9]     3.50931     4.22592     4.22592     0.00000
  O    [10]     3.50931     4.22592     4.22592     5.16494     0.00000
  O    [11]     3.50931     4.22592     4.22592     5.16494     5.16494

                 O    
                [11]
  O    [11]     0.00000
 rotcon2
   Rotational constants (in cm-1): 
          0.0262257244             0.0307833858             0.0262257244
   Rotational constants (in MHz): 
        786.2275495055           922.8628183399           786.2275495055
  ECPDATA file not present.   Using default ECPDATA. 
  There are  19 frozen-core orbitals.
  There are  183 basis functions.
 @CHECKOUT-I, Total execution time (CPU/WALL):        1.10/       0.50 seconds.
--executable xjoda finished with status     0 in        0.52 seconds (walltime).
 --invoking executable--
/opt/cfour/2.1/bin/xvmol
 SERIAL VERSION OF MOLECULE STARTED
********************************************************************************
                    INPUT FROM MOL FILE
********************************************************************************
INTGRL        1    0    1    0    0    0    0    0    0                         
         *** CFOUR Program System (Release V0.1) ***                            
Optimization on FeCO5                                                           
    7    2 X  Y       0.10E-08              0    0                              
   9999.00      3.00                                                            
         26.00000000    1    4    1    1    1    1                              
FE#1   0.000000000000000   0.000000000000000   0.000000000000000                
   20    6                                                                      
   4316265.0000000000        8.0488029999999998E-006  -4.1559539999999997E-006  
   646342.40000000002        6.2583059999999998E-005  -3.2314010000000003E-005  
   147089.70000000001        3.2902389999999999E-004  -1.6995250000000000E-004  
   41661.519999999997        1.3873550000000001E-003  -7.1713690000000004E-004  
   13590.770000000000        5.0232560000000002E-003  -2.6036250000000000E-003  
   4905.7500000000000        1.6101399999999998E-002  -8.3991090000000001E-003  
   1912.7460000000001        4.5900339999999998E-002  -2.4341089999999999E-002  
   792.60429999999997       0.11361540000000001       -6.2519480000000002E-002  
   344.80650000000003       0.22838690000000000      -0.13659289999999999       
   155.89990000000000       0.32211590000000001      -0.23127070000000000       
   72.230909999999994       0.23836610000000000      -0.23837340000000001       
   32.725059999999999        7.4046669999999995E-002   3.1238370000000001E-002  
   15.667619999999999        9.2141970000000004E-002  0.50868179999999996      -
   7.5034830000000001        9.3397900000000006E-002  0.49876949999999998      -
   3.3122229999999999        1.5739650000000001E-002   9.0335520000000002E-002  
   1.5584709999999999       -4.1866819999999998E-004  -6.0053370000000003E-003  
  0.68391400000000002        5.3763179999999999E-005   2.3124539999999999E-004  
  0.14675700000000000       -3.8166539999999997E-005  -5.6436799999999999E-004  
   7.0583000000000007E-002   4.3196030000000000E-005   4.9922599999999997E-004  
   3.1448999999999998E-002  -3.4010190000000000E-006  -1.0152930000000000E-004  
   16    5                                                                      
   17745.689999999999        4.1000000000000000E-005  -1.5000000000000000E-005  
   4200.7209999999995        3.6900000000000002E-004  -1.2999999999999999E-004  
   1364.4290000000001        2.1289999999999998E-003  -7.5100000000000004E-004  
   522.08060000000000        9.3690000000000006E-003  -3.3289999999999999E-003  
   221.45949999999999        3.3097000000000001E-002  -1.1912000000000001E-002  
   100.90960000000000        9.4431000000000001E-002  -3.4932999999999999E-002  
   48.401150000000001       0.20807700000000001       -7.9989000000000005E-002  
   23.985360000000000       0.33233299999999999      -0.13463600000000001       
   12.182499999999999       0.33298699999999998      -0.13859800000000000       
   6.2422979999999999       0.15684300000000001        3.0277999999999999E-002  
   3.1109439999999999        2.1548999999999999E-002  0.33321600000000001      -
   1.5099579999999999       -2.0950000000000001E-003  0.45615299999999998      -
  0.71084499999999995       -1.7390000000000001E-003  0.28505100000000000      -
  0.27318999999999999       -2.9999999999999997E-004   4.6143999999999998E-002  
  0.10423300000000001        2.9000000000000000E-005  -3.2490000000000002E-003  
   3.8290999999999999E-002  -1.1000000000000000E-005   1.3569999999999999E-003  
    8    3                                                                      
   113.34399999999999        3.5300000000000002E-003  -3.8899999999999998E-003  
   33.641399999999997        2.5784000000000001E-002  -2.8441999999999999E-002  
   12.331000000000000        9.9118999999999999E-002 -0.11242900000000000       
   4.9947800000000004       0.23907300000000001      -0.27425699999999997       
   2.0728000000000000       0.35719899999999999      -0.31554599999999999       
  0.83075299999999996       0.36218800000000001        5.7109000000000000E-002  
  0.30917800000000001       0.23646100000000000       0.56360399999999999       
  0.10013000000000000        6.0117999999999998E-002  0.38463700000000001       
    2    1                                                                      
   3.2242999999999999       0.42224899999999999                                 
  0.77580000000000005       0.77146800000000004                                 
          6.00000000    1    3    1    1    1                                   
C #2   0.000000000000000  -3.496258624948056  -0.000000000000000                
    9    3                                                                      
   6665.0000000000000        6.9200000000000002E-004  -1.4600000000000000E-004  
   1000.0000000000000        5.3290000000000004E-003  -1.1540000000000001E-003  
   228.00000000000000        2.7077000000000000E-002  -5.7250000000000001E-003  
   64.709999999999994       0.10171800000000000       -2.3311999999999999E-002  
   21.059999999999999       0.27473999999999998       -6.3954999999999998E-002  
   7.4950000000000001       0.44856400000000002      -0.14998100000000000       
   2.7970000000000002       0.28507399999999999      -0.12726199999999999       
  0.52149999999999996        1.5204000000000001E-002  0.54452900000000004       
  0.15959999999999999       -3.1909999999999998E-003  0.58049600000000001       
    4    2                                                                      
   9.4390000000000001        3.8108999999999997E-002   0.0000000000000000       
   2.0019999999999998       0.20948000000000000        0.0000000000000000       
  0.54559999999999997       0.50855700000000004        0.0000000000000000       
  0.15170000000000000       0.46884199999999998        1.0000000000000000       
    1    1                                                                      
  0.55000000000000004        1.0000000000000000                                 
          6.00000000    1    3    1    1    1                                   
C #3  -2.999487355575584   0.000000000000000  -1.731754832172443                
    9    3                                                                      
   6665.0000000000000        6.9200000000000002E-004  -1.4600000000000000E-004  
   1000.0000000000000        5.3290000000000004E-003  -1.1540000000000001E-003  
   228.00000000000000        2.7077000000000000E-002  -5.7250000000000001E-003  
   64.709999999999994       0.10171800000000000       -2.3311999999999999E-002  
   21.059999999999999       0.27473999999999998       -6.3954999999999998E-002  
   7.4950000000000001       0.44856400000000002      -0.14998100000000000       
   2.7970000000000002       0.28507399999999999      -0.12726199999999999       
  0.52149999999999996        1.5204000000000001E-002  0.54452900000000004       
  0.15959999999999999       -3.1909999999999998E-003  0.58049600000000001       
    4    2                                                                      
   9.4390000000000001        3.8108999999999997E-002   0.0000000000000000       
   2.0019999999999998       0.20948000000000000        0.0000000000000000       
  0.54559999999999997       0.50855700000000004        0.0000000000000000       
  0.15170000000000000       0.46884199999999998        1.0000000000000000       
    1    1                                                                      
  0.55000000000000004        1.0000000000000000                                 
          6.00000000    1    3    1    1    1                                   
C #4  -0.000000000000000  -0.000000000000000   3.463509664344885                
    9    3                                                                      
   6665.0000000000000        6.9200000000000002E-004  -1.4600000000000000E-004  
   1000.0000000000000        5.3290000000000004E-003  -1.1540000000000001E-003  
   228.00000000000000        2.7077000000000000E-002  -5.7250000000000001E-003  
   64.709999999999994       0.10171800000000000       -2.3311999999999999E-002  
   21.059999999999999       0.27473999999999998       -6.3954999999999998E-002  
   7.4950000000000001       0.44856400000000002      -0.14998100000000000       
   2.7970000000000002       0.28507399999999999      -0.12726199999999999       
  0.52149999999999996        1.5204000000000001E-002  0.54452900000000004       
  0.15959999999999999       -3.1909999999999998E-003  0.58049600000000001       
    4    2                                                                      
   9.4390000000000001        3.8108999999999997E-002   0.0000000000000000       
   2.0019999999999998       0.20948000000000000        0.0000000000000000       
  0.54559999999999997       0.50855700000000004        0.0000000000000000       
  0.15170000000000000       0.46884199999999998        1.0000000000000000       
    1    1                                                                      
  0.55000000000000004        1.0000000000000000                                 
          8.00000000    1    3    1    1    1                                   
O #5   0.000000000000000  -5.658521504426401  -0.000000000000000                
    9    3                                                                      
   11720.000000000000        7.1000000000000002E-004  -1.6000000000000001E-004  
   1759.0000000000000        5.4700000000000000E-003  -1.2630000000000000E-003  
   400.80000000000001        2.7837000000000001E-002  -6.2670000000000000E-003  
   113.70000000000000       0.10480000000000000       -2.5715999999999999E-002  
   37.030000000000001       0.28306199999999998       -7.0924000000000001E-002  
   13.270000000000000       0.44871899999999998      -0.16541100000000000       
   5.0250000000000004       0.27095200000000003      -0.11695500000000000       
   1.0129999999999999        1.5458000000000000E-002  0.55736799999999997       
  0.30230000000000001       -2.5850000000000001E-003  0.57275900000000002       
    4    2                                                                      
   17.699999999999999        4.3018000000000001E-002   0.0000000000000000       
   3.8540000000000001       0.22891300000000001        0.0000000000000000       
   1.0460000000000000       0.50872799999999996        0.0000000000000000       
  0.27529999999999999       0.46053100000000002        1.0000000000000000       
    1    1                                                                      
   1.1850000000000001        1.0000000000000000                                 
          8.00000000    1    3    1    1    1                                   
O #6  -4.880162867170784   0.000000000000000  -2.817563345050269                
    9    3                                                                      
   11720.000000000000        7.1000000000000002E-004  -1.6000000000000001E-004  
   1759.0000000000000        5.4700000000000000E-003  -1.2630000000000000E-003  
   400.80000000000001        2.7837000000000001E-002  -6.2670000000000000E-003  
   113.70000000000000       0.10480000000000000       -2.5715999999999999E-002  
   37.030000000000001       0.28306199999999998       -7.0924000000000001E-002  
   13.270000000000000       0.44871899999999998      -0.16541100000000000       
   5.0250000000000004       0.27095200000000003      -0.11695500000000000       
   1.0129999999999999        1.5458000000000000E-002  0.55736799999999997       
  0.30230000000000001       -2.5850000000000001E-003  0.57275900000000002       
    4    2                                                                      
   17.699999999999999        4.3018000000000001E-002   0.0000000000000000       
   3.8540000000000001       0.22891300000000001        0.0000000000000000       
   1.0460000000000000       0.50872799999999996        0.0000000000000000       
  0.27529999999999999       0.46053100000000002        1.0000000000000000       

Running with 32 threads/proc

    1    1                                                                      
   1.1850000000000001        1.0000000000000000                                 
          8.00000000    1    3    1    1    1                                   
O #7   0.000000000000000  -0.000000000000001   5.635126690100535                
    9    3                                                                      
   11720.000000000000        7.1000000000000002E-004  -1.6000000000000001E-004  
   1759.0000000000000        5.4700000000000000E-003  -1.2630000000000000E-003  
   400.80000000000001        2.7837000000000001E-002  -6.2670000000000000E-003  
   113.70000000000000       0.10480000000000000       -2.5715999999999999E-002  
   37.030000000000001       0.28306199999999998       -7.0924000000000001E-002  
   13.270000000000000       0.44871899999999998      -0.16541100000000000       
   5.0250000000000004       0.27095200000000003      -0.11695500000000000       
   1.0129999999999999        1.5458000000000000E-002  0.55736799999999997       
  0.30230000000000001       -2.5850000000000001E-003  0.57275900000000002       
    4    2                                                                      
   17.699999999999999        4.3018000000000001E-002   0.0000000000000000       
   3.8540000000000001       0.22891300000000001        0.0000000000000000       
   1.0460000000000000       0.50872799999999996        0.0000000000000000       
  0.27529999999999999       0.46053100000000002        1.0000000000000000       
    1    1                                                                      
   1.1850000000000001        1.0000000000000000                                 
FINISH                                                                          

********************************************************************************
 ONE- AND TWO-ELECTRON INTEGRALS OVER SYMMETRY-ADAPTED AOS ARE CALCULATED.

  SPHERICAL HARMONICS ARE USED.
  
  INTEGRALS LESS THAN  0.10E-13 ARE NEGLECTED.

  NUCLEAR REPULSION ENERGY :  793.3069308847 A.U.
  @MOLECU-I, ONE ELECTRON INTEGRALS (CPU/WALL):        1.00/       0.13 SECONDS.
  @TWOEL-I,    4283646 INTEGRALS OF SYMMETRY TYPE  I I I I
  @TWOEL-I,   13299212 INTEGRALS OF SYMMETRY TYPE  I J I J
  @TWOEL-I,    6960224 INTEGRALS OF SYMMETRY TYPE  I I J J
  @TWOEL-I,    8577579 INTEGRALS OF SYMMETRY TYPE  I J K L
  @TWOEL-I, TOTAL NUMBER OF 2-E INTEGRALS   33120661.
  @MOLECU-I, TWO ELECTRON INTEGRALS (CPU/WALL):       43.06/      17.14 SECONDS.
 @CHECKOUT-I, Total execution time (CPU/WALL):       44.13/      17.28 seconds.
--executable xvmol finished with status     0 in       17.30 seconds (walltime).
 --invoking executable--
/opt/cfour/2.1/bin/xvmol2ja
 @GETMEM-I,  Allocated     762 MB of main memory.
 @CHECKOUT-I, Total execution time (CPU/WALL):        0.29/       0.02 seconds.
--executable xvmol2ja finished with status     0 in        0.04 seconds (walltime).
 --invoking executable--
/opt/cfour/2.1/bin/xvscf
  There are  183 functions in the AO basis.

  There are 4 irreducible representations.

       Irrep        # of functions
         1                 73
         2                 44
         3                 44
         4                 22


  Parameters for SCF calculation: 
        SCF reference function:  RHF  
  Maximum number of iterations:  150
     Full symmetry point group: D3h 
     Computational point group: C2v 
        Initial density matrix: MOREAD                 
     SCF convergence tolerance: 10**(- 7)
  DIIS convergence acceleration:  ON
          Latest start for DIIS:   8
                     DIIS order:   6

  Memory information:    1346178 words required.
  Fock matrices are constructed from AO integral file.
 @GETMEM-I,  Allocated      10 MB of main memory.
  Initialization and symmetry analysis required      0.008 seconds.

  @INITGES-I, Occupancies from core Hamiltonian:

          Alpha population by irrep:  23   10   11    4
           Beta population by irrep:  23   10   11    4


 total no. of electrons in initial guess :   0.0000000000000000     
  --------------------------------------------------------------------
  Iteration         Total Energy            Largest Density Difference
  --------------------------------------------------------------------
       0           793.306930884720373              0.0000000000D+00
   current occupation vector 
    23 10 11  4
    23 10 11  4
       1         -1389.830669508129631              0.9461554920D+03
   current occupation vector 
    23 10 11  4
    23 10 11  4
       2         -1257.053413496293160              0.9144355000D+03
   current occupation vector 
    21 12 11  4
    21 12 11  4
       3         -1383.572576404665142              0.9853565233D+03
   current occupation vector 
    23 11 11  3
    23 11 11  3
       4         -1252.144418341195887              0.9860867015D+03
   current occupation vector 
    23 11 10  4
    23 11 10  4
       5         -1383.591993598430236              0.1087544819D+04
   current occupation vector 
    23 11 11  3
    23 11 11  3
       6         -1252.043942280474766              0.1088264298D+04
   current occupation vector 
    23 11 10  4
    23 11 10  4
       7         -1383.587537865900231              0.1091357675D+04
   current occupation vector 
    23 11 11  3
    23 11 11  3
       8         -1252.041496642849324              0.1091375165D+04
   current occupation vector 
    23 11 10  4
    23 11 10  4
       9         -1687.686328751385190              0.1346013947D+03
   current occupation vector 
    22 11 12  3
    22 11 12  3
      10         -1806.438563391745447              0.1213214632D+03
   current occupation vector 
    23 11 11  3
    23 11 11  3
      11         -1822.752205407281508              0.2069385393D+02
   current occupation vector 
    23 11 11  3
    23 11 11  3
      12         -1825.488882416602792              0.9935852895D+00
   current occupation vector 
    23 11 11  3
    23 11 11  3
      13         -1824.094784517397329              0.3372121987D+01
   current occupation vector 
    23 11 11  3
    23 11 11  3
      14         -1825.547307406900472              0.4954486079D+00
   current occupation vector 
    23 11 11  3
    23 11 11  3
      15         -1825.975721907087973              0.8276389233D+00
   current occupation vector 
    23 11 11  3
    23 11 11  3
      16         -1825.990490125976976              0.2733951553D+00
   current occupation vector 
    23 11 11  3
    23 11 11  3
      17         -1825.994981912582261              0.7286174433D-01
   current occupation vector 
    23 11 11  3
    23 11 11  3
      18         -1825.996848555207180              0.1142435546D+00
   current occupation vector 
    23 11 11  3
    23 11 11  3
      19         -1825.997397048437961              0.5409678771D-01
   current occupation vector 
    23 11 11  3
    23 11 11  3
      20         -1825.997797072391677              0.6601230448D-01
   current occupation vector 
    23 11 11  3
    23 11 11  3
      21         -1825.998005491316690              0.7202788644D-01
   current occupation vector 
    23 11 11  3
    23 11 11  3
      22         -1825.998017373598032              0.1905552005D-01
   current occupation vector 
    23 11 11  3
    23 11 11  3
      23         -1825.998020445813381              0.6314132153D-02
   current occupation vector 
    23 11 11  3
    23 11 11  3
      24         -1825.998022891944856              0.7910539345D-02
   current occupation vector 
    23 11 11  3
    23 11 11  3
      25         -1825.998026689870585              0.1418017127D-01
   current occupation vector 
    23 11 11  3
    23 11 11  3
      26         -1825.998030254343576              0.1853600606D-01
   current occupation vector 
    23 11 11  3
    23 11 11  3
      27         -1825.998033032523381              0.2073921564D-01
   current occupation vector 
    23 11 11  3
    23 11 11  3
      28         -1825.998034048163845              0.1237249114D-01
   current occupation vector 
    23 11 11  3
    23 11 11  3
      29         -1825.998034468915648              0.6887984728D-02
   current occupation vector 
    23 11 11  3
    23 11 11  3
      30         -1825.998034763420947              0.8168019371D-02
   current occupation vector 
    23 11 11  3
    23 11 11  3
      31         -1825.998034830102370              0.2503882779D-02
   current occupation vector 
    23 11 11  3
    23 11 11  3
      32         -1825.998034856525464              0.1826254457D-02
   current occupation vector 
    23 11 11  3
    23 11 11  3
      33         -1825.998034870249739              0.9231900969D-03
   current occupation vector 
    23 11 11  3
    23 11 11  3
      34         -1825.998034874075984              0.6544056867D-03
   current occupation vector 
    23 11 11  3
    23 11 11  3
      35         -1825.998034875766734              0.4963345702D-03
   current occupation vector 
    23 11 11  3
    23 11 11  3
      36         -1825.998034876323800              0.1516279965D-03
   current occupation vector 
    23 11 11  3
    23 11 11  3
      37         -1825.998034876720794              0.1757489059D-03
   current occupation vector 
    23 11 11  3
    23 11 11  3
      38         -1825.998034876875408              0.8407186720D-04
   current occupation vector 
    23 11 11  3
    23 11 11  3
      39         -1825.998034877073223              0.1213073805D-03
   current occupation vector 
    23 11 11  3
    23 11 11  3
      40         -1825.998034877250575              0.1717895314D-03
   current occupation vector 
    23 11 11  3
    23 11 11  3
      41         -1825.998034877278315              0.7925760877D-04
   current occupation vector 
    23 11 11  3
    23 11 11  3
      42         -1825.998034877296959              0.5640791927D-04
   current occupation vector 
    23 11 11  3
    23 11 11  3
      43         -1825.998034877331520              0.3947649143D-04
   current occupation vector 
    23 11 11  3
    23 11 11  3
      44         -1825.998034877353803              0.3593722834D-04
   current occupation vector 
    23 11 11  3
    23 11 11  3
      45         -1825.998034877329246              0.9075240878D-05
   current occupation vector 
    23 11 11  3
    23 11 11  3
      46         -1825.998034877329701              0.8915212660D-05
   current occupation vector 
    23 11 11  3
    23 11 11  3
      47         -1825.998034877346981              0.5104224526D-05
   current occupation vector 
    23 11 11  3
    23 11 11  3
      48         -1825.998034877329246              0.4143926877D-05
   current occupation vector 
    23 11 11  3
    23 11 11  3
      49         -1825.998034877353803              0.1953069281D-05
   current occupation vector 
    23 11 11  3
    23 11 11  3
      50         -1825.998034877328791              0.9612813177D-06
   current occupation vector 
    23 11 11  3
    23 11 11  3
      51         -1825.998034877352438              0.3514180893D-06
   current occupation vector 
    23 11 11  3
    23 11 11  3
      52         -1825.998034877327427              0.9739269391D-06
   current occupation vector 
    23 11 11  3
    23 11 11  3
      53         -1825.998034877353348              0.1218563309D-05
   current occupation vector 
    23 11 11  3
    23 11 11  3
      54         -1825.998034877340160              0.9221776187D-06
   current occupation vector 
    23 11 11  3
    23 11 11  3
      55         -1825.998034877353348              0.7515480034D-06
   current occupation vector 
    23 11 11  3
    23 11 11  3
      56         -1825.998034877352893              0.3392254300D-06
   current occupation vector 
    23 11 11  3
    23 11 11  3
      57         -1825.998034877346527              0.4699128011D-06
   current occupation vector 
    23 11 11  3
    23 11 11  3
      58         -1825.998034877350165              0.1791429654D-06
   current occupation vector 
    23 11 11  3
    23 11 11  3

  SCF has converged.

 Density matrix saved to file den.dat
 total electron number:   96.000000000000270     
     E(SCF)=     -1825.998034877343343              0.5840025175D-07


  Final occupancies:

     Alpha population by irrep:  23   11   11    3
      Beta population by irrep:  23   11   11    3


  Eigenvector printing suppressed.

 @PUTMOS-I, Writing converged MOs to NEWMOS. 
 @PUTMOS-I, Symmetry   1 Full Blocks 18 Partial Blocksize   1
 @PUTMOS-I, Symmetry   2 Full Blocks 11 Partial Blocksize   0
 @PUTMOS-I, Symmetry   3 Full Blocks 11 Partial Blocksize   0
 @PUTMOS-I, Symmetry   4 Full Blocks  5 Partial Blocksize   2
 @PUTFOCK-I, Writing converged Fock matrix to NEWFOCK. 
 @PUTFOCK-I, Symmetry   1 Full Blocks 18 Partial Blocksize   1
 @PUTFOCK-I, Symmetry   2 Full Blocks 11 Partial Blocksize   0
 @PUTFOCK-I, Symmetry   3 Full Blocks 11 Partial Blocksize   0
 @PUTFOCK-I, Symmetry   4 Full Blocks  5 Partial Blocksize   2



  ORBITAL EIGENVALUES (ALPHA)  (1H = 27.2113834 eV)

       MO #        E(hartree)               E(eV)           FULLSYM    COMPSYM
       ----   --------------------   --------------------   -------   ---------
    1     1        -261.3695441961       -7112.2268762045    A1'         A1 (1)
    2     2         -31.9418817912        -869.1827919370    A1'         A1 (1)
    3   118         -27.4277830943        -746.3479215898    A2''        B2 (3)
    4     3         -27.4176566725        -746.0723676443     E'         A1 (1)
    5    74         -27.4176566722        -746.0723676367     E'         B1 (2)
    6   119         -20.6906386942        -563.0209022999     E          B2 (3)
    7     4         -20.6906377043        -563.0208753630     E          A1 (1)
    8     5         -20.6630204067        -562.2693704879                A1 (1)
    9    75         -20.6630204052        -562.2693704470                B1 (2)
   10     6         -20.6630198781        -562.2693561055                A1 (1)
   11   120         -11.4103243352        -310.4907102042     E          B2 (3)
   12     7         -11.4103224174        -310.4906580164     E          A1 (1)
   13     8         -11.3926241316        -310.0090631760                A1 (1)
   14    76         -11.3926241307        -310.0090631536                B1 (2)
   15     9         -11.3926240316        -310.0090604563                A1 (1)
   16    10          -4.1218678402        -112.1617261237    A1'         A1 (1)
   17   121          -2.7104695447         -73.7556259754    A2''        B2 (3)
   18    11          -2.6986396473         -73.4337181005     E'         A1 (1)
   19    77          -2.6986396471         -73.4337180953     E'         B1 (2)
   20    12          -1.5359079028         -41.7941788099    A1'         A1 (1)
   21   122          -1.5358324479         -41.7921255780    A2''        B2 (3)
   22    13          -1.5084073550         -41.0458508595    A1'         A1 (1)
   23    14          -1.5082328754         -41.0411030289     E'         A1 (1)
   24    78          -1.5082328743         -41.0411029990     E'         B1 (2)
   25    15          -0.8601474750         -23.4058027236    A1'         A1 (1)
   26   123          -0.8285882365         -22.5470321840    A2''        B2 (3)
   27    16          -0.8077232208         -21.9792662413    A1'         A1 (1)
   28    17          -0.8060827150         -21.9346258090     E'         A1 (1)
   29    79          -0.8060827140         -21.9346257823     E'         B1 (2)
   30    18          -0.7273998723         -19.7935568112    A1'         A1 (1)
   31   124          -0.6703523643         -18.2412151978     E''        B2 (3)
   32   162          -0.6703523641         -18.2412151921     E''        A2 (4)
   33    19          -0.6668217569         -18.1451424878     E'         A1 (1)
   34    80          -0.6668217568         -18.1451424836     E'         B1 (2)
   35   125          -0.6663449914         -18.1321690363    A2''        B2 (3)
   36    81          -0.6436279083         -17.5140057797     E'         B1 (2)
   37    20          -0.6436279075         -17.5140057573     E'         A1 (1)
   38    82          -0.6335731796         -17.2404027008    A2'         B1 (2)
   39   126          -0.6280171021         -17.0892141484     E''        B2 (3)
   40   163          -0.6280171012         -17.0892141238     E''        A2 (4)
   41    21          -0.6217246458         -16.9179877055     E'         A1 (1)
   42    83          -0.6217246457         -16.9179877023     E'         B1 (2)
   43   127          -0.6016165224         -16.3708178496    A2''        B2 (3)
   44    22          -0.5998600090         -16.3230206922    A1'         A1 (1)
   45   164          -0.4781656250         -13.0115481517     E''        A2 (4)
   46   128          -0.4781656250         -13.0115481511     E''        B2 (3)
   47    84          -0.3382693375          -9.2047766340     E'         B1 (2)
   48    23          -0.3382693333          -9.2047765197     E'         A1 (1)
  +++++++++++++++++++++++++++++++++++++++++++++++++++++++++++++++++++++++++++++
   49    24           0.0829074642           2.2560267945    A1'         A1 (1)
   50   129           0.0949059973           2.5825234787     E''        B2 (3)
   51   165           0.0949059976           2.5825234880     E''        A2 (4)
   52   130           0.1058156222           2.8793894643    A2''        B2 (3)
   53    85           0.1112654000           3.0276854595     E'         B1 (2)
   54    25           0.1112654009           3.0276854827     E'         A1 (1)
   55    26           0.1379471048           3.7537315572     E'         A1 (1)
   56    86           0.1379471049           3.7537315596     E'         B1 (2)
   57    87           0.1436587353           3.9091529248    A2'         B1 (2)
   58   131           0.1517421443           4.1291136673    A2''        B2 (3)
   59    88           0.1564038204           4.2559643228     E'         B1 (2)
   60    27           0.1564038225           4.2559643786     E'         A1 (1)
   61   132           0.2167185252           5.8972108779     E''        B2 (3)
   62   166           0.2167185258           5.8972108950     E''        A2 (4)
   63    28           0.2745079450           7.4697409379    A1'         A1 (1)
   64    29           0.3499932502           9.5238005193    A1'         A1 (1)
   65    30           0.3768450853          10.2544760982     E'         A1 (1)
   66    89           0.3768450853          10.2544760987     E'         B1 (2)
   67   167           0.4386176997          11.9353943932     E''        A2 (4)
   68   133           0.4386177001          11.9353944047     E''        B2 (3)
   69   134           0.4787952315          13.0286806135    A2''        B2 (3)
   70    31           0.4876625175          13.2699717341    A1'         A1 (1)
   71    32           0.5380077761          14.6399358664    A1'         A1 (1)
   72    90           0.5431083645          14.7787299337     E'         B1 (2)
   73    33           0.5431083649          14.7787299463     E'         A1 (1)
   74   135           0.6540081688          17.7964670271    A2''        B2 (3)
   75    34           0.6816541194          18.5487515892     E'         A1 (1)
   76    91           0.6816541198          18.5487515988     E'         B1 (2)
   77    35           0.6968293483          18.9616905621    A1'         A1 (1)
   78   136           0.6989767419          19.0201241122     E''        B2 (3)
   79   168           0.6989767424          19.0201241256     E''        A2 (4)
   80    36           0.7341690209          19.9777547069     E'         A1 (1)
   81    92           0.7341690209          19.9777547088     E'         B1 (2)
   82    93           0.7717689493          21.0009007764    A2'         B1 (2)
   83   137           0.7777463745          21.1635547854    A2''        B2 (3)
   84    37           0.8389639489          22.8293696717    A1'         A1 (1)
   85    94           0.8615801276          23.4447871825     E'         B1 (2)
   86    38           0.8615801282          23.4447871971     E'         A1 (1)
   87   138           0.8682701306          23.6268314172     E''        B2 (3)
   88   169           0.8682701307          23.6268314217     E''        A2 (4)
   89   139           0.9127595233          24.8374493407    A2''        B2 (3)
   90    39           0.9317487203          25.3541716599     E'         A1 (1)
   91    95           0.9317487207          25.3541716715     E'         B1 (2)
   92    40           0.9540470315          25.9609395561    A1'         A1 (1)
   93    41           0.9917155186          26.9859512014    A1'         A1 (1)
   94   140           1.0117679062          27.5316044068    A2''        B2 (3)
   95    42           1.0165868122          27.6627335059     E'         A1 (1)
   96    96           1.0165868129          27.6627335250     E'         B1 (2)
   97    43           1.0620035128          28.8985847602    A1'         A1 (1)
   98    97           1.2195432202          33.1854581384     E'         B1 (2)
   99    44           1.2195432203          33.1854581414     E'         A1 (1)
  100   141           1.2322716309          33.5318158004     E''        B2 (3)
  101   170           1.2322716314          33.5318158136     E''        A2 (4)
  102   142           1.2466997364          33.9244245111    A2''        B2 (3)
  103   143           1.2510819663          34.0436710490     E''        B2 (3)
  104   171           1.2510819667          34.0436710596     E''        A2 (4)
  105    98           1.2650288602          34.4231853272     E'         B1 (2)
  106    45           1.2650288602          34.4231853277     E'         A1 (1)
  107    99           1.2889362912          35.0737395993    A2'         B1 (2)
  108   172           1.3178733917          35.8611581344    A1''        A2 (4)
  109   100           1.3278562413          36.1328052825     E'         B1 (2)
  110    46           1.3278562414          36.1328052837     E'         A1 (1)
  111    47           1.3443003964          36.5802734913    A1'         A1 (1)
  112   144           1.3484427296          36.6929921093     E''        B2 (3)
  113   173           1.3484427298          36.6929921127     E''        A2 (4)
  114   174           1.3874391636          37.7541390252     E''        A2 (4)
  115   145           1.3874391637          37.7541390282     E''        B2 (3)
  116   101           1.4083855941          38.3241203751     E'         B1 (2)
  117    48           1.4083855943          38.3241203822     E'         A1 (1)
  118   146           1.4498183733          39.4515636174    A2''        B2 (3)
  119   102           1.4545260880          39.5796670466    A2'         B1 (2)
  120    49           1.4904471580          40.5571290530     E'         A1 (1)
  121   103           1.4904471582          40.5571290580     E'         B1 (2)
  122   175           1.5072814929          41.0152145941     E''        A2 (4)
  123   147           1.5072814934          41.0152146076     E''        B2 (3)
  124    50           1.5810395875          43.0222743872    A1'         A1 (1)
  125    51           1.5965976597          43.4456310535     E'         A1 (1)
  126   104           1.5965976600          43.4456310616     E'         B1 (2)
  127   148           1.6196634968          44.0732843913    A2''        B2 (3)
  128   149           1.6999842091          46.2589220887     E''        B2 (3)
  129   176           1.6999842096          46.2589221011     E''        A2 (4)
  130    52           1.7170752650          46.7239933615     E'         A1 (1)
  131   105           1.7170752654          46.7239933727     E'         B1 (2)
  132    53           1.7570655448          47.8121841991    A1'         A1 (1)
  133   150           1.8117855616          49.3011915551    A2''        B2 (3)
  134   106           1.8475200310          50.2735759024     E'         B1 (2)
  135    54           1.8475200313          50.2735759097     E'         A1 (1)
  136    55           1.9658102599          53.4924166728    A1'         A1 (1)
  137    56           2.1173537564          57.6161248597    A1'         A1 (1)
  138   151           2.1345851681          58.0850154088    A2''        B2 (3)
  139   107           2.1529139561          58.5837670859     E'         B1 (2)
  140    57           2.1529139561          58.5837670875     E'         A1 (1)
  141    58           2.1677504471          58.9874885321    A1'         A1 (1)
  142   152           2.2916575263          62.3591715703     E''        B2 (3)
  143   177           2.2916575265          62.3591715740     E''        A2 (4)
  144    59           2.4795966054          67.4732539079    A1'         A1 (1)
  145    60           2.5137133240          68.4016170158     E'         A1 (1)
  146   108           2.5137133240          68.4016170179     E'         B1 (2)
  147   153           2.8372352521          77.2050962411    A2''        B2 (3)
  148    61           2.8976527651          78.8491403500    A1'         A1 (1)
  149   154           2.9200928634          79.4597664704     E''        B2 (3)
  150   178           2.9200928634          79.4597664705     E''        A2 (4)
  151   109           2.9219674259          79.5107759093     E'         B1 (2)
  152    62           2.9219674259          79.5107759093     E'         A1 (1)
  153   179           2.9372385085          79.9263231927    A1''        A2 (4)
  154    63           2.9412763752          80.0361991306     E'         A1 (1)
  155   110           2.9412763763          80.0361991598     E'         B1 (2)
  156   180           2.9428338073          80.0785790136     E''        A2 (4)
  157   155           2.9428338084          80.0785790430     E''        B2 (3)
  158    64           2.9586208407          80.5081660304    A1'         A1 (1)
  159    65           3.0788402232          83.7795017422     E'         A1 (1)
  160   111           3.0788402234          83.7795017466     E'         B1 (2)
  161   112           3.2362718096          88.0634329974    A2'         B1 (2)
  162   156           3.3038625694          89.9026710780     E''        B2 (3)
  163   181           3.3038625699          89.9026710895     E''        A2 (4)
  164   113           3.4791189674          94.6716401153     E'         B1 (2)
  165    66           3.4791189676          94.6716401208     E'         A1 (1)
  166   182           3.4936883459          95.0680930617     E''        A2 (4)
  167   157           3.4936883460          95.0680930629     E''        B2 (3)
  168   158           3.4949770131          95.1031594785    A2''        B2 (3)
  169   114           3.5774615476          97.3476777713     E'         B1 (2)
  170    67           3.5774615483          97.3476777898     E'         A1 (1)
  171    68           3.5815987555          97.4602569202    A1'         A1 (1)
  172   159           3.7847298839         102.9877359349     E''        B2 (3)
  173   183           3.7847298841         102.9877359407     E''        A2 (4)
  174    69           3.8516671402         104.8091912822    A1'         A1 (1)
  175   160           3.8554268078         104.9114970365    A2''        B2 (3)
  176    70           3.8732689291         105.3970058411     E'         A1 (1)
  177   115           3.8732689299         105.3970058616     E'         B1 (2)
  178   116           3.9631247393         107.8421067419    A2'         B1 (2)
  179    71           3.9929347126         108.6532773568    A1'         A1 (1)
  180    72           4.2040159316         114.3970893352     E'         A1 (1)
  181   117           4.2040159320         114.3970893458     E'         B1 (2)
  182   161           4.4416975456         120.8647348615    A2''        B2 (3)
  183    73           4.5234075992         123.0881784563    A1'         A1 (1)


  VSCF finished.

 @CHECKOUT-I, Total execution time (CPU/WALL):      182.37/      12.46 seconds.
--executable xvscf finished with status     0 in       12.48 seconds (walltime).
 --invoking executable--
/opt/cfour/2.1/bin/xvtran
 @GETMEM-I,  Allocated     762 MB of main memory.
  Full RHF integral transformation
  The following  19 MOs will be dropped:
    1  2  3  4  5  6  7  8  9 10 11 24 25 26 27 35 36 37 38
  There are 164 active molecular orbitals.
  Transformation of IIII integrals :
  1 pass through the AO integral file was required.
     4283646 AO integrals were read.
     2613431 MO integrals were written to HF2.
  Transformation of IIJJ integrals :
  1 pass through the AO integral file was required.
     6960224 AO integrals were read.
     4784348 MO integrals were written to HF2.
  Transformation of IJIJ integrals :
  1 pass through the AO integral file was required.
    13299212 AO integrals were read.
     9139888 MO integrals were written to HF2.
  Transformation of IJKL integrals :
  1 pass through the AO integral file was required.
     8577579 AO integrals were read.
     6547199 MO integrals were written to HF2.
  Summary of active molecular orbitals: 
------------------------------------------------------------------------

  Index      Eigenvalue    Symmetry    Index      Eigenvalue    Symmetry
------------------------------------------------------------------------
     1        -1.5359079        1        83         0.1564038        2
     2        -1.5084074        1        84         0.3768451        2
     3        -1.5082329        1        85         0.5431084        2
     4        -0.8601475        1        86         0.6816541        2
     5        -0.8077232        1        87         0.7341690        2
     6        -0.8060827        1        88         0.7717689        2
     7        -0.7273999        1        89         0.8615801        2
     8        -0.6668218        1        90         0.9317487        2
     9        -0.6436279        1        91         1.0165868        2
    10        -0.6217246        1        92         1.2195432        2
    11        -0.5998600        1        93         1.2650289        2
    12        -0.3382693        1        94         1.2889363        2
    13        -1.5082329        2        95         1.3278562        2
    14        -0.8060827        2        96         1.4083856        2
    15        -0.6668218        2        97         1.4545261        2
    16        -0.6436279        2        98         1.4904472        2
    17        -0.6335732        2        99         1.5965977        2
    18        -0.6217246        2       100         1.7170753        2
    19        -0.3382693        2       101         1.8475200        2
    20        -1.5358324        3       102         2.1529140        2
    21        -0.8285882        3       103         2.5137133        2
    22        -0.6703524        3       104         2.9219674        2
    23        -0.6663450        3       105         2.9412764        2
    24        -0.6280171        3       106         3.0788402        2
    25        -0.6016165        3       107         3.2362718        2
    26        -0.4781656        3       108         3.4791190        2
    27        -0.6703524        4       109         3.5774615        2
    28        -0.6280171        4       110         3.8732689        2
    29        -0.4781656        4       111         3.9631247        2
    30         0.0829075        1       112         4.2040159        2
    31         0.1112654        1       113         0.0949060        3
    32         0.1379471        1       114         0.1058156        3
    33         0.1564038        1       115         0.1517421        3
    34         0.2745079        1       116         0.2167185        3
    35         0.3499933        1       117         0.4386177        3
    36         0.3768451        1       118         0.4787952        3
    37         0.4876625        1       119         0.6540082        3
    38         0.5380078        1       120         0.6989767        3
    39         0.5431084        1       121         0.7777464        3
    40         0.6816541        1       122         0.8682701        3
    41         0.6968293        1       123         0.9127595        3
    42         0.7341690        1       124         1.0117679        3
    43         0.8389639        1       125         1.2322716        3
    44         0.8615801        1       126         1.2466997        3
    45         0.9317487        1       127         1.2510820        3
    46         0.9540470        1       128         1.3484427        3
    47         0.9917155        1       129         1.3874392        3
    48         1.0165868        1       130         1.4498184        3
    49         1.0620035        1       131         1.5072815        3
    50         1.2195432        1       132         1.6196635        3
    51         1.2650289        1       133         1.6999842        3
    52         1.3278562        1       134         1.8117856        3
    53         1.3443004        1       135         2.1345852        3
    54         1.4083856        1       136         2.2916575        3
    55         1.4904472        1       137         2.8372353        3
    56         1.5810396        1       138         2.9200929        3
    57         1.5965977        1       139         2.9428338        3
    58         1.7170753        1       140         3.3038626        3
    59         1.7570655        1       141         3.4936883        3
    60         1.8475200        1       142         3.4949770        3
    61         1.9658103        1       143         3.7847299        3
    62         2.1173538        1       144         3.8554268        3
    63         2.1529140        1       145         4.4416975        3
    64         2.1677504        1       146         0.0949060        4
    65         2.4795966        1       147         0.2167185        4
    66         2.5137133        1       148         0.4386177        4
    67         2.8976528        1       149         0.6989767        4
    68         2.9219674        1       150         0.8682701        4
    69         2.9412764        1       151         1.2322716        4
    70         2.9586208        1       152         1.2510820        4
    71         3.0788402        1       153         1.3178734        4
    72         3.4791190        1       154         1.3484427        4
    73         3.5774615        1       155         1.3874392        4
    74         3.5815988        1       156         1.5072815        4
    75         3.8516671        1       157         1.6999842        4
    76         3.8732689        1       158         2.2916575        4
    77         3.9929347        1       159         2.9200929        4
    78         4.2040159        1       160         2.9372385        4
    79         4.5234076        1       161         2.9428338        4
    80         0.1112654        2       162         3.3038626        4
    81         0.1379471        2       163         3.4936883        4
    82         0.1436587        2       164         3.7847299        4
------------------------------------------------------------------------
  -1.5359079027885261       -1.5084073549716754       -1.5082328753965573      -0.86014747503128230      -0.80772322076260350      -0.80608271496473727      -0.72739987233420933      -0.66682175694835855      -0.64362790747856080      -0.62172464577958431      -0.59986000903434600      -0.33826933325535624       -1.5082328742968358      -0.80608271398136944      -0.66682175679421318      -0.64362790830018124      -0.63357317955505765      -0.62172464566174723      -0.33826933745761656       -1.5358324479029191      -0.82858823649506119      -0.67035236429041523      -0.66634499135169345      -0.62801710214997564      -0.60161652235565288      -0.47816562502006310      -0.67035236408110743      -0.62801710124894583      -0.47816562504187782        8.2907464180148910E-002  0.11126540088826266       0.13794710478413402       0.15640382247544080       0.27450794500594033       0.34999325022477756       0.37684508529031013       0.48766251752279383       0.53800777605293071       0.54310836494797221       0.68165411939999876       0.69682934834047294       0.73416902085406588       0.83896394887905157       0.86158012815519092       0.93174872027491007       0.95404703151281478       0.99171551863760765        1.0165868121907080        1.0620035128475978        1.2195432203363481        1.2650288602278941        1.3278562413577280        1.3443003964014852        1.4083855943252321        1.4904471579700125        1.5810395875437340        1.5965976596966902        1.7170752649623773        1.7570655448226740        1.8475200312568221        1.9658102598619767        2.1173537564303939        2.1529139561313642        2.1677504471188360        2.4795966054375440        2.5137133239558032        2.8976527650542296        2.9219674259320834        2.9412763751876816        2.9586208406589170        3.0788402232488834        3.4791189675713117        3.5774615483079217        3.5815987554744408        3.8516671402394098        3.8732689291017053        3.9929347126402810        4.2040159316265155        4.5234075992000600       0.11126540003395752       0.13794710487406914       0.14365873529324241       0.15640382042562556       0.37684508530698091       0.54310836448505051       0.68165411975331158       0.73416902092379466       0.77176894932774853       0.86158012762075797       0.93174872070426629        1.0165868128929978        1.2195432202242551        1.2650288602100261        1.2889362912454638        1.3278562413157384        1.4083855940632686        1.4545260880267217        1.4904471581568470        1.5965976599928207        1.7170752653722499        1.8475200309883959        2.1529139560717279        2.5137133240307135        2.9219674259295796        2.9412763762603831        3.0788402234108698        3.2362718095918024        3.4791189673689820        3.5774615476292033        3.8732689298567951        3.9631247392569784        4.2040159320146246        9.4905997271214987E-002  0.10581562215866369       0.15174214433088348       0.21671852515438633       0.43861770014470680       0.47879523146646208       0.65400816877026735       0.69897674192465042       0.77774637453294382       0.86827013055155344       0.91275952330771237        1.0117679061771863        1.2322716308629842        1.2466997363728314        1.2510819662702131        1.3484427296461907        1.3874391637216992        1.4498183733434553        1.5072814933619278        1.6196634968317516        1.6999842091355750        1.8117855615923020        2.1345851680895933        2.2916575263238474        2.8372352521072242        2.9200928634312686        2.9428338084045378        3.3038625694410477        3.4936883459927452        3.4949770131311775        3.7847298838523242        3.8554268077574578        4.4416975456475987        9.4905997611345660E-002  0.21671852578602085       0.43861769972450970       0.69897674241721697       0.86827013071606773        1.2322716313501407        1.2510819666590882        1.3178733917073924        1.3484427297701103        1.3874391636129422        1.5072814928676246        1.6999842095906343        2.2916575264610310        2.9200928634320755        2.9372385085235555        2.9428338073238258        3.3038625698635387        3.4936883459489878        3.7847298840654218     
 @CHECKOUT-I, Total execution time (CPU/WALL):       69.63/       9.97 seconds.
--executable xvtran finished with status     0 in        9.99 seconds (walltime).
 --invoking executable--
/opt/cfour/2.1/bin/xintprc
 @GETMEM-I,  Allocated     762 MB of main memory.
  @GMOIAA-I, Processing MO integrals for spin case AA.
  @GMOIAA-I, Generation of integral list completed.
                      TYPE                NUMBER
                      ----               --------
                      PPPP              10614360
                      PPPH               9061424
                      PPHH               1937322
                      PHPH               1013665
                      PHHH                433440
                      HHHH                 24655

                     TOTAL              23084866

  @FORMT2-I, Second-order MP correlation energies:
            ------------------------------------------------
            E(SCF)                  =  -1825.998034877343 a.u.
            E2(AA)                  =     -0.333476661378 a.u.
            E2(AB)                  =     -1.475062260030 a.u.
            E2(TOT)                 =     -2.142015582787 a.u.
            Total MP2 energy        =  -1828.140050460130 a.u.
            ------------------------------------------------
   Largest T2 amplitudes for spin case AB:
       _       _                 _       _                 _       _
   i   j   a   b             i   j   a   b             i   j   a   b
-----------------------------------------------------------------------------
[ 12  12  33  33]-0.07784 [ 19  19  83  83]-0.07784 [ 26  26 113 113]-0.06904
[ 29  29 146 146]-0.06904 [ 29  12 146  33]-0.05938 [ 12  29  33 146]-0.05938
[ 26  19 113  83]-0.05938 [ 19  26  83 113]-0.05938 [ 26  29 113 146]-0.05929
[ 29  26 146 113]-0.05929 [ 26  12 113  33]-0.05493 [ 12  26  33 113]-0.05493
[ 19  29  83 146]-0.05493 [ 29  19 146  83]-0.05493 [ 19  12  83  33]-0.05437
-----------------------------------------------------------------------------
   Norm of T2AB vector (  3870729 symmetry allowed elements):  0.7542938785.
[...]
         2                P              0.64131305
         6                P              0.64131305
         2                P             -0.09628847
         6                P             -0.09628847
         2                D              0.00589144
         6                D              0.00589144
         2                D              0.05820482
         6                D              0.05820482
         2                D              0.00078341
         6                D              0.00078341
         2                D              0.02199893
         6                D              0.02199893
         2                D              0.05820482
         6                D              0.05820482
         2                D              0.00589144
         6                D              0.00589144
         3                S              2.00294843
         5                S              2.00294843
         3                S              1.67257038
         5                S              1.67257038
         3                S             -0.15341195
         5                S             -0.15341195
         3                P              1.07175247
         5                P              1.07175247
         3                P             -0.21017777
         5                P             -0.21017777
         3                P              0.62612095
         5                P              0.62612095
         3                P             -0.07616058
         5                P             -0.07616058
         3                P              0.82324380
         5                P              0.82324380
         3                P             -0.13696055
         5                P             -0.13696055
         3                D              0.03373681
         5                D              0.03373681
         3                D              0.04175830
         5                D              0.04175830
         3                D              0.03869694
         5                D              0.03869694
         3                D              0.00648046
         5                D              0.00648046
         3                D              0.01418605
         5                D              0.01418605
         3                D              0.02399503
         5                D              0.02399503
         4                S              2.00294843
         4                S              1.67257038
         4                S             -0.15341195
         4                P              0.69898946
         4                P             -0.10035194
         4                P              0.62612095
         4                P             -0.07616058
         4                P              1.19600681
         4                P             -0.24678637
         4                D              0.00727813
         4                D              0.00039992
         4                D              0.06238895
         4                D              0.00648046
         4                D              0.05554443
         4                D              0.02676170
         7                S              2.00199262
         8                S              2.00199262
         7                S              1.85365094
         8                S              1.85365094
         7                S             -0.08297676
         8                S             -0.08297676
         7                P              1.50446495
         8                P              1.50446495
         7                P             -0.02189847
         8                P             -0.02189847
         7                P              1.53139607
         8                P              1.53139607
         7                P             -0.15908304
         8                P             -0.15908304
         7                P              1.50446495
         8                P              1.50446495
         7                P             -0.02189847
         8                P             -0.02189847
         7                D              0.00175893
         8                D              0.00175893
         7                D              0.00732816
         8                D              0.00732816
         7                D              0.00000027
         8                D              0.00000027
         7                D              0.00703519
         8                D              0.00703519
         7                D              0.00732816
         8                D              0.00732816
         7                D              0.00175893
         8                D              0.00175893
         9                S              2.00200582
        11                S              2.00200582
         9                S              1.84892713
        11                S              1.84892713
         9                S             -0.08015891
        11                S             -0.08015891
         9                P              1.53268693
        11                P              1.53268693
         9                P             -0.11877436
        11                P             -0.11877436
         9                P              1.46753997
        11                P              1.46753997
         9                P             -0.01713402
        11                P             -0.01713402
         9                P              1.54687981
        11                P              1.54687981
         9                P             -0.04979293
        11                P             -0.04979293
         9                D              0.00529904
        11                D              0.00529904
         9                D              0.00549735
        11                D              0.00549735
         9                D              0.00761061
        11                D              0.00761061
         9                D              0.00171576
        11                D              0.00171576
         9                D              0.00183251
        11                D              0.00183251
         9                D              0.00270531
        11                D              0.00270531
        10                S              2.00200582
        10                S              1.84892713
        10                S             -0.08015891
        10                P              1.55397625
        10                P             -0.01530221
        10                P              1.46753997
        10                P             -0.01713402
        10                P              1.52559049
        10                P             -0.15326508
        10                D              0.00175655
        10                D              0.00000009
        10                D              0.00691440
        10                D              0.00171576
        10                D              0.00732977
        10                D              0.00694400
 -------------------------------------------------------
  Population analysis by atoms (atomic charges).
 -------------------------------------------------------
     Z-matrix
      Center          Function          Population
 -------------------------------------------------------
         1                              26.27340627
         2                               5.82454618
         6                               5.82454618
         3                               5.77877879
         5                               5.77877879
         4                               5.77877879
         7                               8.13532246
         8                               8.13532246
         9                               8.15684003
        11                               8.15684003
        10                               8.15684003
 -------------------------------------------------------

  Mulliken population analysis of CCSD(T) density.
   Total density is analyzed.

  Population analysis by orbitals.
 -------------------------------------------------------
     Z-matrix
      Center          Function          Population
 -------------------------------------------------------
         1                S              1.99998891
         1                S              1.99977476
         1                S              2.02199101
         1                S              0.40787056
         1                S              0.03484999
         1                S             -0.04516508
         1                P              1.99997914
         1                P              2.00158193
         1                P              0.10885398
         1                P              0.55020556
         1                P             -0.12926506
         1                P              1.99997296
         1                P              1.99600004
         1                P              0.85757159
         1                P             -0.94686019
         1                P              0.24072991
         1                P              1.99997914
         1                P              2.00158193
         1                P              0.10885398
         1                P              0.55020556
         1                P             -0.12926506
         1                D              0.82447468
         1                D              0.02348997
         1                D             -0.00337785
         1                D              1.52379175
         1                D              0.03926894
         1                D              0.04843064
         1                D              1.40336237
         1                D              0.03541031
         1                D              0.00779392
         1                D              0.49117400
         1                D              0.02313924
         1                D             -0.02909925
         1                D              1.52379175
         1                D              0.03926894
         1                D              0.04843064
         1                D              0.82447468
         1                D              0.02348997
         1                D             -0.00337785
         1                F              0.00148876
         1                F              0.00315715
         1                F              0.00375004
         1                F              0.00294488
         1                F              0.00344393
         1                F              0.00299384
         1                F              0.00191358
         1                F              0.00294488
         1                F              0.00315715
         1                F              0.00174083
         2                S              2.00349851
         6                S              2.00349851
         2                S              1.59985776
         6                S              1.59985776
         2                S             -0.14004399
         6                S             -0.14004399
         2                P              0.78549696
         6                P              0.78549696
         2                P             -0.11176920
         6                P             -0.11176920
         2                P              1.12791829
         6                P              1.12791829
         2                P             -0.21034590
         6                P             -0.21034590
         2                P              0.78549696
         6                P              0.78549696
         2                P             -0.11176920
         6                P             -0.11176920
         2                D              0.00811282
         6                D              0.00811282
         2                D              0.05754711
         6                D              0.05754711
         2                D              0.00427259
         6                D              0.00427259
         2                D              0.02390609
         6                D              0.02390609
         2                D              0.05754711
         6                D              0.05754711
         2                D              0.00811282
         6                D              0.00811282
         3                S              2.00347373
         5                S              2.00347373
         3                S              1.61562258
         5                S              1.61562258
         3                S             -0.17862445
         5                S             -0.17862445
         3                P              1.04862159
         5                P              1.04862159
         3                P             -0.19879865
         5                P             -0.19879865
         3                P              0.75117216
         5                P              0.75117216
         3                P             -0.09400565
         5                P             -0.09400565
         3                P              0.89354342
         5                P              0.89354342
         3                P             -0.13869336
         5                P             -0.13869336
         3                D              0.03247542
         5                D              0.03247542
         3                D              0.04247900
         5                D              0.04247900
         3                D              0.03874237
         5                D              0.03874237
         3                D              0.00884999
         5                D              0.00884999
         3                D              0.01688680
         5                D              0.01688680
         3                D              0.02307132
         5                D              0.02307132
         4                S              2.00347373
         4                S              1.61562258
         4                S             -0.17862445
         4                P              0.81600434
         4                P             -0.10864072
         4                P              0.75117216
         4                P             -0.09400565
         4                P              1.12616067
         4                P             -0.22885129
         4                D              0.00908475
         4                D              0.00409069
         4                D              0.05731142
         4                D              0.00884999
         4                D              0.05527510
         4                D              0.02789294
         7                S              2.00214625
         8                S              2.00214625
         7                S              1.86578113
         8                S              1.86578113
         7                S             -0.11955638
         8                S             -0.11955638
         7                P              1.47958835
         8                P              1.47958835
         7                P             -0.04791657
         8                P             -0.04791657
         7                P              1.51381714
         8                P              1.51381714
         7                P             -0.14642585
         8                P             -0.14642585
         7                P              1.47958835
         8                P              1.47958835
         7                P             -0.04791657
         8                P             -0.04791657
         7                D              0.00408148
         8                D              0.00408148
         7                D              0.01056534
         8                D              0.01056534
         7                D              0.00369959
         8                D              0.00369959
         7                D              0.00892672
         8                D              0.00892672
         7                D              0.01056534
         8                D              0.01056534
         7                D              0.00408148
         8                D              0.00408148
         9                S              2.00215091
        11                S              2.00215091
         9                S              1.86392040
        11                S              1.86392040
         9                S             -0.11855073
        11                S             -0.11855073
         9                P              1.51115040
        11                P              1.51115040
         9                P             -0.11792318
        11                P             -0.11792318
         9                P              1.45797646
        11                P              1.45797646
         9                P             -0.04780596
        11                P             -0.04780596
         9                P              1.50423129
        11                P              1.50423129
         9                P             -0.06761671
        11                P             -0.06761671
         9                D              0.00745346
        11                D              0.00745346
         9                D              0.00872816
        11                D              0.00872816
         9                D              0.01075990
        11                D              0.01075990
         9                D              0.00403339
        11                D              0.00403339
         9                D              0.00537894
        11                D              0.00537894
         9                D              0.00508484
        11                D              0.00508484
        10                S              2.00215091
        10                S              1.86392040
        10                S             -0.11855073
        10                P              1.50077174
        10                P             -0.04246347
        10                P              1.45797646
        10                P             -0.04780596
        10                P              1.51460996
        10                P             -0.14307641
        10                D              0.00407926
        10                D              0.00370432
        10                D              0.01040245
        10                D              0.00403339
        10                D              0.01040278
        10                D              0.00881649
 -------------------------------------------------------
  Population analysis by atoms (atomic charges).
 -------------------------------------------------------
     Z-matrix
      Center          Function          Population
 -------------------------------------------------------
         1                              26.50090741
         2                               5.88783872
         6                               5.88783872
         3                               5.86481626
         5                               5.86481626
         4                               5.86481627
         7                               8.02102581
         8                               8.02102581
         9                               8.02897158
        11                               8.02897158
        10                               8.02897158
 -------------------------------------------------------
 @CHECKOUT-I, Total execution time (CPU/WALL):        3.21/       0.25 seconds.
--executable xprops finished with status     0 in        0.27 seconds (walltime).
  The final electronic energy is     -1828.078580117990668 a.u. 
  This computation required                        14681.42 seconds (walltime).
Attempting to clean /scratch/jearias... save is False. TIME: Tue 04 Mar 2025 06:25:59 PM PST
Total of 14682 seconds elapsed for this process.
