
     Program PWSCF v.6.7MaX starts on 30Mar2024 at 15:16:41 

     This program is part of the open-source Quantum ESPRESSO suite
     for quantum simulation of materials; please cite
         "P. Giannozzi et al., J. Phys.:Condens. Matter 21 395502 (2009);
         "P. Giannozzi et al., J. Phys.:Condens. Matter 29 465901 (2017);
          URL http://www.quantum-espresso.org", 
     in publications or presentations arising from this work. More details at
     http://www.quantum-espresso.org/quote

     Parallel version (MPI), running on     2 processors

     MPI processes distributed on     1 nodes
     R & G space division:  proc/nbgrp/npool/nimage =       2
     Waiting for input...
     Reading input from standard input

     Current dimensions of program PWSCF are:
     Max number of different atomic species (ntypx) = 10
     Max number of k-points (npk) =  40000
     Max angular momentum in pseudopotentials (lmaxx) =  3
     file Pb.pbe-dn-kjpaw_psl.0.2.2.UPF: wavefunction(s)  6S renormalized

     Subspace diagonalization in iterative solution of the eigenvalue problem:
     a serial algorithm will be used

     Found symmetry operation: I + (  0.0000  0.0000 -0.5000)
     This is a supercell, fractional translations are disabled
     Message from routine setup:
     using ibrav=0 with symmetry is DISCOURAGED, use correct ibrav instead

     Parallelization info
     --------------------
     sticks:   dense  smooth     PW     G-vecs:    dense   smooth      PW
     Min        7164    3576    942               644878   227930   30674
     Max        7165    3577    943               644881   227933   30675
     Sum       14329    7153   1885              1289759   455863   61349



     bravais-lattice index     =            0
     lattice parameter (alat)  =      23.7166  a.u.
     unit-cell volume          =   13340.0440 (a.u.)^3
     number of atoms/cell      =           40
     number of atomic types    =            3
     number of electrons       =       352.00
     number of Kohn-Sham states=          211
     kinetic-energy cutoff     =      40.0000  Ry
     charge density cutoff     =     320.0000  Ry
     scf convergence threshold =      8.0E-09
     mixing beta               =       0.4000
     number of iterations used =            8  plain     mixing
     energy convergence thresh.=      4.0E-04
     force convergence thresh. =      1.0E-04
     press convergence thresh. =      5.0E-02
     Exchange-correlation= SLA  PW   PBX  PBC
                           (   1   4   3   4   0   0   0)
     nstep                     =           50


     celldm(1)=  23.716600  celldm(2)=   0.000000  celldm(3)=   0.000000
     celldm(4)=   0.000000  celldm(5)=   0.000000  celldm(6)=   0.000000

     crystal axes: (cart. coord. in units of alat)
               a(1) = (   1.000000   0.000000   0.000000 )  
               a(2) = (   0.000000   1.000000   0.000000 )  
               a(3) = (   0.000000   0.000000   1.000000 )  

     reciprocal axes: (cart. coord. in units 2 pi/alat)
               b(1) = (  1.000000  0.000000  0.000000 )  
               b(2) = (  0.000000  1.000000  0.000000 )  
               b(3) = (  0.000000  0.000000  1.000000 )  


     PseudoPot. # 1 for Cs read from file:
     ../pseudo/Cs_pbe_v1.uspp.F.UPF
     MD5 check sum: 3476d69cb178dfad3ffaa59df4e07ca4
     Pseudo is Ultrasoft + core correction, Zval =  9.0
     Generated by new atomic code, or converted to UPF format
     Using radial grid of  905 points,  6 beta functions with: 
                l(1) =   0
                l(2) =   0
                l(3) =   1
                l(4) =   1
                l(5) =   2
                l(6) =   2
     Q(r) pseudized with  6 coefficients,  rinner =    1.500   1.500   1.500
                                                       1.500   1.500

     PseudoPot. # 2 for I  read from file:
     ../pseudo/I.pbe-n-kjpaw_psl.0.2.UPF
     MD5 check sum: d4ef18d9c8f18dc85e5843bca1e50dc0
     Pseudo is Projector augmented-wave + core cor, Zval =  7.0
     Generated using "atomic" code by A. Dal Corso  v.5.0.99 svn rev. 10869
     Shape of augmentation charge: PSQ
     Using radial grid of 1247 points,  4 beta functions with: 
                l(1) =   0
                l(2) =   0
                l(3) =   1
                l(4) =   1
     Q(r) pseudized with 0 coefficients 


     PseudoPot. # 3 for Pb read from file:
     ../pseudo/Pb.pbe-dn-kjpaw_psl.0.2.2.UPF
     MD5 check sum: 9d431e6316058b74ade52399a6cf67da
     Pseudo is Projector augmented-wave + core cor, Zval = 14.0
     Generated using "atomic" code by A. Dal Corso  v.5.0.99 svn rev. 10869
     Shape of augmentation charge: PSQ
     Using radial grid of 1281 points,  6 beta functions with: 
                l(1) =   0
                l(2) =   0
                l(3) =   1
                l(4) =   1
                l(5) =   2
                l(6) =   2
     Q(r) pseudized with 0 coefficients 


     atomic species   valence    mass     pseudopotential
        Cs             9.00   132.90545     Cs( 1.00)
        I              7.00   126.90447     I ( 1.00)
        Pb            14.00   207.20000     Pb( 1.00)

     48 Sym. Ops., with inversion, found


                                    s                        frac. trans.

      isym =  1     identity                                     

 cryst.   s( 1) = (     1          0          0      )
                  (     0          1          0      )
                  (     0          0          1      )

 cart.    s( 1) = (  1.0000000  0.0000000  0.0000000 )
                  (  0.0000000  1.0000000  0.0000000 )
                  (  0.0000000  0.0000000  1.0000000 )


      isym =  2     180 deg rotation - cart. axis [0,0,1]        

 cryst.   s( 2) = (    -1          0          0      )
                  (     0         -1          0      )
                  (     0          0          1      )

 cart.    s( 2) = ( -1.0000000  0.0000000  0.0000000 )
                  (  0.0000000 -1.0000000  0.0000000 )
                  (  0.0000000  0.0000000  1.0000000 )


      isym =  3     180 deg rotation - cart. axis [0,1,0]        

 cryst.   s( 3) = (    -1          0          0      )
                  (     0          1          0      )
                  (     0          0         -1      )

 cart.    s( 3) = ( -1.0000000  0.0000000  0.0000000 )
                  (  0.0000000  1.0000000  0.0000000 )
                  (  0.0000000  0.0000000 -1.0000000 )


      isym =  4     180 deg rotation - cart. axis [1,0,0]        

 cryst.   s( 4) = (     1          0          0      )
                  (     0         -1          0      )
                  (     0          0         -1      )

 cart.    s( 4) = (  1.0000000  0.0000000  0.0000000 )
                  (  0.0000000 -1.0000000  0.0000000 )
                  (  0.0000000  0.0000000 -1.0000000 )


      isym =  5     180 deg rotation - cart. axis [1,1,0]        

 cryst.   s( 5) = (     0          1          0      )
                  (     1          0          0      )
                  (     0          0         -1      )

 cart.    s( 5) = (  0.0000000  1.0000000  0.0000000 )
                  (  1.0000000  0.0000000  0.0000000 )
                  (  0.0000000  0.0000000 -1.0000000 )


      isym =  6     180 deg rotation - cart. axis [1,-1,0]       

 cryst.   s( 6) = (     0         -1          0      )
                  (    -1          0          0      )
                  (     0          0         -1      )

 cart.    s( 6) = (  0.0000000 -1.0000000  0.0000000 )
                  ( -1.0000000  0.0000000  0.0000000 )
                  (  0.0000000  0.0000000 -1.0000000 )


      isym =  7      90 deg rotation - cart. axis [0,0,-1]       

 cryst.   s( 7) = (     0         -1          0      )
                  (     1          0          0      )
                  (     0          0          1      )

 cart.    s( 7) = (  0.0000000  1.0000000  0.0000000 )
                  ( -1.0000000  0.0000000  0.0000000 )
                  (  0.0000000  0.0000000  1.0000000 )


      isym =  8      90 deg rotation - cart. axis [0,0,1]        

 cryst.   s( 8) = (     0          1          0      )
                  (    -1          0          0      )
                  (     0          0          1      )

 cart.    s( 8) = (  0.0000000 -1.0000000  0.0000000 )
                  (  1.0000000  0.0000000  0.0000000 )
                  (  0.0000000  0.0000000  1.0000000 )


      isym =  9     180 deg rotation - cart. axis [1,0,1]        

 cryst.   s( 9) = (     0          0          1      )
                  (     0         -1          0      )
                  (     1          0          0      )

 cart.    s( 9) = (  0.0000000  0.0000000  1.0000000 )
                  (  0.0000000 -1.0000000  0.0000000 )
                  (  1.0000000  0.0000000  0.0000000 )


      isym = 10     180 deg rotation - cart. axis [-1,0,1]       

 cryst.   s(10) = (     0          0         -1      )
                  (     0         -1          0      )
                  (    -1          0          0      )

 cart.    s(10) = (  0.0000000  0.0000000 -1.0000000 )
                  (  0.0000000 -1.0000000  0.0000000 )
                  ( -1.0000000  0.0000000  0.0000000 )


      isym = 11      90 deg rotation - cart. axis [0,1,0]        

 cryst.   s(11) = (     0          0         -1      )
                  (     0          1          0      )
                  (     1          0          0      )

 cart.    s(11) = (  0.0000000  0.0000000  1.0000000 )
                  (  0.0000000  1.0000000  0.0000000 )
                  ( -1.0000000  0.0000000  0.0000000 )


      isym = 12      90 deg rotation - cart. axis [0,-1,0]       

 cryst.   s(12) = (     0          0          1      )
                  (     0          1          0      )
                  (    -1          0          0      )

 cart.    s(12) = (  0.0000000  0.0000000 -1.0000000 )
                  (  0.0000000  1.0000000  0.0000000 )
                  (  1.0000000  0.0000000  0.0000000 )


      isym = 13     180 deg rotation - cart. axis [0,1,1]        

 cryst.   s(13) = (    -1          0          0      )
                  (     0          0          1      )
                  (     0          1          0      )

 cart.    s(13) = ( -1.0000000  0.0000000  0.0000000 )
                  (  0.0000000  0.0000000  1.0000000 )
                  (  0.0000000  1.0000000  0.0000000 )


      isym = 14     180 deg rotation - cart. axis [0,1,-1]       

 cryst.   s(14) = (    -1          0          0      )
                  (     0          0         -1      )
                  (     0         -1          0      )

 cart.    s(14) = ( -1.0000000  0.0000000  0.0000000 )
                  (  0.0000000  0.0000000 -1.0000000 )
                  (  0.0000000 -1.0000000  0.0000000 )


      isym = 15      90 deg rotation - cart. axis [-1,0,0]       

 cryst.   s(15) = (     1          0          0      )
                  (     0          0         -1      )
                  (     0          1          0      )

 cart.    s(15) = (  1.0000000  0.0000000  0.0000000 )
                  (  0.0000000  0.0000000  1.0000000 )
                  (  0.0000000 -1.0000000  0.0000000 )


      isym = 16      90 deg rotation - cart. axis [1,0,0]        

 cryst.   s(16) = (     1          0          0      )
                  (     0          0          1      )
                  (     0         -1          0      )

 cart.    s(16) = (  1.0000000  0.0000000  0.0000000 )
                  (  0.0000000  0.0000000 -1.0000000 )
                  (  0.0000000  1.0000000  0.0000000 )


      isym = 17     120 deg rotation - cart. axis [-1,-1,-1]     

 cryst.   s(17) = (     0          0          1      )
                  (     1          0          0      )
                  (     0          1          0      )

 cart.    s(17) = (  0.0000000  1.0000000  0.0000000 )
                  (  0.0000000  0.0000000  1.0000000 )
                  (  1.0000000  0.0000000  0.0000000 )


      isym = 18     120 deg rotation - cart. axis [-1,1,1]       

 cryst.   s(18) = (     0          0         -1      )
                  (    -1          0          0      )
                  (     0          1          0      )

 cart.    s(18) = (  0.0000000 -1.0000000  0.0000000 )
                  (  0.0000000  0.0000000  1.0000000 )
                  ( -1.0000000  0.0000000  0.0000000 )


      isym = 19     120 deg rotation - cart. axis [1,1,-1]       

 cryst.   s(19) = (     0          0         -1      )
                  (     1          0          0      )
                  (     0         -1          0      )

 cart.    s(19) = (  0.0000000  1.0000000  0.0000000 )
                  (  0.0000000  0.0000000 -1.0000000 )
                  ( -1.0000000  0.0000000  0.0000000 )


      isym = 20     120 deg rotation - cart. axis [1,-1,1]       

 cryst.   s(20) = (     0          0          1      )
                  (    -1          0          0      )
                  (     0         -1          0      )

 cart.    s(20) = (  0.0000000 -1.0000000  0.0000000 )
                  (  0.0000000  0.0000000 -1.0000000 )
                  (  1.0000000  0.0000000  0.0000000 )


      isym = 21     120 deg rotation - cart. axis [1,1,1]        

 cryst.   s(21) = (     0          1          0      )
                  (     0          0          1      )
                  (     1          0          0      )

 cart.    s(21) = (  0.0000000  0.0000000  1.0000000 )
                  (  1.0000000  0.0000000  0.0000000 )
                  (  0.0000000  1.0000000  0.0000000 )


      isym = 22     120 deg rotation - cart. axis [-1,1,-1]      

 cryst.   s(22) = (     0         -1          0      )
                  (     0          0         -1      )
                  (     1          0          0      )

 cart.    s(22) = (  0.0000000  0.0000000  1.0000000 )
                  ( -1.0000000  0.0000000  0.0000000 )
                  (  0.0000000 -1.0000000  0.0000000 )


      isym = 23     120 deg rotation - cart. axis [1,-1,-1]      

 cryst.   s(23) = (     0         -1          0      )
                  (     0          0          1      )
                  (    -1          0          0      )

 cart.    s(23) = (  0.0000000  0.0000000 -1.0000000 )
                  ( -1.0000000  0.0000000  0.0000000 )
                  (  0.0000000  1.0000000  0.0000000 )


      isym = 24     120 deg rotation - cart. axis [-1,-1,1]      

 cryst.   s(24) = (     0          1          0      )
                  (     0          0         -1      )
                  (    -1          0          0      )

 cart.    s(24) = (  0.0000000  0.0000000 -1.0000000 )
                  (  1.0000000  0.0000000  0.0000000 )
                  (  0.0000000 -1.0000000  0.0000000 )


      isym = 25     inversion                                    

 cryst.   s(25) = (    -1          0          0      )
                  (     0         -1          0      )
                  (     0          0         -1      )

 cart.    s(25) = ( -1.0000000  0.0000000  0.0000000 )
                  (  0.0000000 -1.0000000  0.0000000 )
                  (  0.0000000  0.0000000 -1.0000000 )


      isym = 26     inv. 180 deg rotation - cart. axis [0,0,1]   

 cryst.   s(26) = (     1          0          0      )
                  (     0          1          0      )
                  (     0          0         -1      )

 cart.    s(26) = (  1.0000000  0.0000000  0.0000000 )
                  (  0.0000000  1.0000000  0.0000000 )
                  (  0.0000000  0.0000000 -1.0000000 )


      isym = 27     inv. 180 deg rotation - cart. axis [0,1,0]   

 cryst.   s(27) = (     1          0          0      )
                  (     0         -1          0      )
                  (     0          0          1      )

 cart.    s(27) = (  1.0000000  0.0000000  0.0000000 )
                  (  0.0000000 -1.0000000  0.0000000 )
                  (  0.0000000  0.0000000  1.0000000 )


      isym = 28     inv. 180 deg rotation - cart. axis [1,0,0]   

 cryst.   s(28) = (    -1          0          0      )
                  (     0          1          0      )
                  (     0          0          1      )

 cart.    s(28) = ( -1.0000000  0.0000000  0.0000000 )
                  (  0.0000000  1.0000000  0.0000000 )
                  (  0.0000000  0.0000000  1.0000000 )


      isym = 29     inv. 180 deg rotation - cart. axis [1,1,0]   

 cryst.   s(29) = (     0         -1          0      )
                  (    -1          0          0      )
                  (     0          0          1      )

 cart.    s(29) = (  0.0000000 -1.0000000  0.0000000 )
                  ( -1.0000000  0.0000000  0.0000000 )
                  (  0.0000000  0.0000000  1.0000000 )


      isym = 30     inv. 180 deg rotation - cart. axis [1,-1,0]  

 cryst.   s(30) = (     0          1          0      )
                  (     1          0          0      )
                  (     0          0          1      )

 cart.    s(30) = (  0.0000000  1.0000000  0.0000000 )
                  (  1.0000000  0.0000000  0.0000000 )
                  (  0.0000000  0.0000000  1.0000000 )


      isym = 31     inv.  90 deg rotation - cart. axis [0,0,-1]  

 cryst.   s(31) = (     0          1          0      )
                  (    -1          0          0      )
                  (     0          0         -1      )

 cart.    s(31) = (  0.0000000 -1.0000000  0.0000000 )
                  (  1.0000000  0.0000000  0.0000000 )
                  (  0.0000000  0.0000000 -1.0000000 )


      isym = 32     inv.  90 deg rotation - cart. axis [0,0,1]   

 cryst.   s(32) = (     0         -1          0      )
                  (     1          0          0      )
                  (     0          0         -1      )

 cart.    s(32) = (  0.0000000  1.0000000  0.0000000 )
                  ( -1.0000000  0.0000000  0.0000000 )
                  (  0.0000000  0.0000000 -1.0000000 )


      isym = 33     inv. 180 deg rotation - cart. axis [1,0,1]   

 cryst.   s(33) = (     0          0         -1      )
                  (     0          1          0      )
                  (    -1          0          0      )

 cart.    s(33) = (  0.0000000  0.0000000 -1.0000000 )
                  (  0.0000000  1.0000000  0.0000000 )
                  ( -1.0000000  0.0000000  0.0000000 )


      isym = 34     inv. 180 deg rotation - cart. axis [-1,0,1]  

 cryst.   s(34) = (     0          0          1      )
                  (     0          1          0      )
                  (     1          0          0      )

 cart.    s(34) = (  0.0000000  0.0000000  1.0000000 )
                  (  0.0000000  1.0000000  0.0000000 )
                  (  1.0000000  0.0000000  0.0000000 )


      isym = 35     inv.  90 deg rotation - cart. axis [0,1,0]   

 cryst.   s(35) = (     0          0          1      )
                  (     0         -1          0      )
                  (    -1          0          0      )

 cart.    s(35) = (  0.0000000  0.0000000 -1.0000000 )
                  (  0.0000000 -1.0000000  0.0000000 )
                  (  1.0000000  0.0000000  0.0000000 )


      isym = 36     inv.  90 deg rotation - cart. axis [0,-1,0]  

 cryst.   s(36) = (     0          0         -1      )
                  (     0         -1          0      )
                  (     1          0          0      )

 cart.    s(36) = (  0.0000000  0.0000000  1.0000000 )
                  (  0.0000000 -1.0000000  0.0000000 )
                  ( -1.0000000  0.0000000  0.0000000 )


      isym = 37     inv. 180 deg rotation - cart. axis [0,1,1]   

 cryst.   s(37) = (     1          0          0      )
                  (     0          0         -1      )
                  (     0         -1          0      )

 cart.    s(37) = (  1.0000000  0.0000000  0.0000000 )
                  (  0.0000000  0.0000000 -1.0000000 )
                  (  0.0000000 -1.0000000  0.0000000 )


      isym = 38     inv. 180 deg rotation - cart. axis [0,1,-1]  

 cryst.   s(38) = (     1          0          0      )
                  (     0          0          1      )
                  (     0          1          0      )

 cart.    s(38) = (  1.0000000  0.0000000  0.0000000 )
                  (  0.0000000  0.0000000  1.0000000 )
                  (  0.0000000  1.0000000  0.0000000 )


      isym = 39     inv.  90 deg rotation - cart. axis [-1,0,0]  

 cryst.   s(39) = (    -1          0          0      )
                  (     0          0          1      )
                  (     0         -1          0      )

 cart.    s(39) = ( -1.0000000  0.0000000  0.0000000 )
                  (  0.0000000  0.0000000 -1.0000000 )
                  (  0.0000000  1.0000000  0.0000000 )


      isym = 40     inv.  90 deg rotation - cart. axis [1,0,0]   

 cryst.   s(40) = (    -1          0          0      )
                  (     0          0         -1      )
                  (     0          1          0      )

 cart.    s(40) = ( -1.0000000  0.0000000  0.0000000 )
                  (  0.0000000  0.0000000  1.0000000 )
                  (  0.0000000 -1.0000000  0.0000000 )


      isym = 41     inv. 120 deg rotation - cart. axis [-1,-1,-1]

 cryst.   s(41) = (     0          0         -1      )
                  (    -1          0          0      )
                  (     0         -1          0      )

 cart.    s(41) = (  0.0000000 -1.0000000  0.0000000 )
                  (  0.0000000  0.0000000 -1.0000000 )
                  ( -1.0000000  0.0000000  0.0000000 )


      isym = 42     inv. 120 deg rotation - cart. axis [-1,1,1]  

 cryst.   s(42) = (     0          0          1      )
                  (     1          0          0      )
                  (     0         -1          0      )

 cart.    s(42) = (  0.0000000  1.0000000  0.0000000 )
                  (  0.0000000  0.0000000 -1.0000000 )
                  (  1.0000000  0.0000000  0.0000000 )


      isym = 43     inv. 120 deg rotation - cart. axis [1,1,-1]  

 cryst.   s(43) = (     0          0          1      )
                  (    -1          0          0      )
                  (     0          1          0      )

 cart.    s(43) = (  0.0000000 -1.0000000  0.0000000 )
                  (  0.0000000  0.0000000  1.0000000 )
                  (  1.0000000  0.0000000  0.0000000 )


      isym = 44     inv. 120 deg rotation - cart. axis [1,-1,1]  

 cryst.   s(44) = (     0          0         -1      )
                  (     1          0          0      )
                  (     0          1          0      )

 cart.    s(44) = (  0.0000000  1.0000000  0.0000000 )
                  (  0.0000000  0.0000000  1.0000000 )
                  ( -1.0000000  0.0000000  0.0000000 )


      isym = 45     inv. 120 deg rotation - cart. axis [1,1,1]   

 cryst.   s(45) = (     0         -1          0      )
                  (     0          0         -1      )
                  (    -1          0          0      )

 cart.    s(45) = (  0.0000000  0.0000000 -1.0000000 )
                  ( -1.0000000  0.0000000  0.0000000 )
                  (  0.0000000 -1.0000000  0.0000000 )


      isym = 46     inv. 120 deg rotation - cart. axis [-1,1,-1] 

 cryst.   s(46) = (     0          1          0      )
                  (     0          0          1      )
                  (    -1          0          0      )

 cart.    s(46) = (  0.0000000  0.0000000 -1.0000000 )
                  (  1.0000000  0.0000000  0.0000000 )
                  (  0.0000000  1.0000000  0.0000000 )


      isym = 47     inv. 120 deg rotation - cart. axis [1,-1,-1] 

 cryst.   s(47) = (     0          1          0      )
                  (     0          0         -1      )
                  (     1          0          0      )

 cart.    s(47) = (  0.0000000  0.0000000  1.0000000 )
                  (  1.0000000  0.0000000  0.0000000 )
                  (  0.0000000 -1.0000000  0.0000000 )


      isym = 48     inv. 120 deg rotation - cart. axis [-1,-1,1] 

 cryst.   s(48) = (     0         -1          0      )
                  (     0          0          1      )
                  (     1          0          0      )

 cart.    s(48) = (  0.0000000  0.0000000  1.0000000 )
                  ( -1.0000000  0.0000000  0.0000000 )
                  (  0.0000000  1.0000000  0.0000000 )


   Cartesian axes

     site n.     atom                  positions (alat units)
         1           Cs  tau(   1) = (   0.2500000   0.2500000   0.2500000  )
         2           Cs  tau(   2) = (   0.2500000   0.2500000   0.7500000  )
         3           Cs  tau(   3) = (   0.2500000   0.7500000   0.2500000  )
         4           Cs  tau(   4) = (   0.2500000   0.7500000   0.7500000  )
         5           Cs  tau(   5) = (   0.7500000   0.2500000   0.2500000  )
         6           Cs  tau(   6) = (   0.7500000   0.2500000   0.7500000  )
         7           Cs  tau(   7) = (   0.7500000   0.7500000   0.2500000  )
         8           Cs  tau(   8) = (   0.7500000   0.7500000   0.7500000  )
         9           Pb  tau(   9) = (   0.0000000   0.0000000   0.0000000  )
        10           Pb  tau(  10) = (   0.0000000   0.0000000   0.5000000  )
        11           Pb  tau(  11) = (   0.0000000   0.5000000   0.0000000  )
        12           Pb  tau(  12) = (   0.0000000   0.5000000   0.5000000  )
        13           Pb  tau(  13) = (   0.5000000   0.0000000   0.0000000  )
        14           Pb  tau(  14) = (   0.5000000   0.0000000   0.5000000  )
        15           Pb  tau(  15) = (   0.5000000   0.5000000   0.0000000  )
        16           Pb  tau(  16) = (   0.5000000   0.5000000   0.5000000  )
        17           I   tau(  17) = (   0.0000000   0.0000000   0.2500000  )
        18           I   tau(  18) = (   0.0000000   0.0000000   0.7500000  )
        19           I   tau(  19) = (   0.0000000   0.5000000   0.2500000  )
        20           I   tau(  20) = (   0.0000000   0.5000000   0.7500000  )
        21           I   tau(  21) = (   0.5000000   0.0000000   0.2500000  )
        22           I   tau(  22) = (   0.5000000   0.0000000   0.7500000  )
        23           I   tau(  23) = (   0.5000000   0.5000000   0.2500000  )
        24           I   tau(  24) = (   0.5000000   0.5000000   0.7500000  )
        25           I   tau(  25) = (   0.0000000   0.2500000   0.0000000  )
        26           I   tau(  26) = (   0.0000000   0.2500000   0.5000000  )
        27           I   tau(  27) = (   0.0000000   0.7500000   0.0000000  )
        28           I   tau(  28) = (   0.0000000   0.7500000   0.5000000  )
        29           I   tau(  29) = (   0.5000000   0.2500000   0.0000000  )
        30           I   tau(  30) = (   0.5000000   0.2500000   0.5000000  )
        31           I   tau(  31) = (   0.5000000   0.7500000   0.0000000  )
        32           I   tau(  32) = (   0.5000000   0.7500000   0.5000000  )
        33           I   tau(  33) = (   0.2500000   0.0000000   0.0000000  )
        34           I   tau(  34) = (   0.2500000   0.0000000   0.5000000  )
        35           I   tau(  35) = (   0.2500000   0.5000000   0.0000000  )
        36           I   tau(  36) = (   0.2500000   0.5000000   0.5000000  )
        37           I   tau(  37) = (   0.7500000   0.0000000   0.0000000  )
        38           I   tau(  38) = (   0.7500000   0.0000000   0.5000000  )
        39           I   tau(  39) = (   0.7500000   0.5000000   0.0000000  )
        40           I   tau(  40) = (   0.7500000   0.5000000   0.5000000  )

   Crystallographic axes

     site n.     atom                  positions (cryst. coord.)
         1           Cs  tau(   1) = (  0.2500000  0.2500000  0.2500000  )
         2           Cs  tau(   2) = (  0.2500000  0.2500000  0.7500000  )
         3           Cs  tau(   3) = (  0.2500000  0.7500000  0.2500000  )
         4           Cs  tau(   4) = (  0.2500000  0.7500000  0.7500000  )
         5           Cs  tau(   5) = (  0.7500000  0.2500000  0.2500000  )
         6           Cs  tau(   6) = (  0.7500000  0.2500000  0.7500000  )
         7           Cs  tau(   7) = (  0.7500000  0.7500000  0.2500000  )
         8           Cs  tau(   8) = (  0.7500000  0.7500000  0.7500000  )
         9           Pb  tau(   9) = (  0.0000000  0.0000000  0.0000000  )
        10           Pb  tau(  10) = (  0.0000000  0.0000000  0.5000000  )
        11           Pb  tau(  11) = (  0.0000000  0.5000000  0.0000000  )
        12           Pb  tau(  12) = (  0.0000000  0.5000000  0.5000000  )
        13           Pb  tau(  13) = (  0.5000000  0.0000000  0.0000000  )
        14           Pb  tau(  14) = (  0.5000000  0.0000000  0.5000000  )
        15           Pb  tau(  15) = (  0.5000000  0.5000000  0.0000000  )
        16           Pb  tau(  16) = (  0.5000000  0.5000000  0.5000000  )
        17           I   tau(  17) = (  0.0000000  0.0000000  0.2500000  )
        18           I   tau(  18) = (  0.0000000  0.0000000  0.7500000  )
        19           I   tau(  19) = (  0.0000000  0.5000000  0.2500000  )
        20           I   tau(  20) = (  0.0000000  0.5000000  0.7500000  )
        21           I   tau(  21) = (  0.5000000  0.0000000  0.2500000  )
        22           I   tau(  22) = (  0.5000000  0.0000000  0.7500000  )
        23           I   tau(  23) = (  0.5000000  0.5000000  0.2500000  )
        24           I   tau(  24) = (  0.5000000  0.5000000  0.7500000  )
        25           I   tau(  25) = (  0.0000000  0.2500000  0.0000000  )
        26           I   tau(  26) = (  0.0000000  0.2500000  0.5000000  )
        27           I   tau(  27) = (  0.0000000  0.7500000  0.0000000  )
        28           I   tau(  28) = (  0.0000000  0.7500000  0.5000000  )
        29           I   tau(  29) = (  0.5000000  0.2500000  0.0000000  )
        30           I   tau(  30) = (  0.5000000  0.2500000  0.5000000  )
        31           I   tau(  31) = (  0.5000000  0.7500000  0.0000000  )
        32           I   tau(  32) = (  0.5000000  0.7500000  0.5000000  )
        33           I   tau(  33) = (  0.2500000  0.0000000  0.0000000  )
        34           I   tau(  34) = (  0.2500000  0.0000000  0.5000000  )
        35           I   tau(  35) = (  0.2500000  0.5000000  0.0000000  )
        36           I   tau(  36) = (  0.2500000  0.5000000  0.5000000  )
        37           I   tau(  37) = (  0.7500000  0.0000000  0.0000000  )
        38           I   tau(  38) = (  0.7500000  0.0000000  0.5000000  )
        39           I   tau(  39) = (  0.7500000  0.5000000  0.0000000  )
        40           I   tau(  40) = (  0.7500000  0.5000000  0.5000000  )

     number of k points=     4  Marzari-Vanderbilt smearing, width (Ry)=  0.0147
                       cart. coord. in units 2pi/alat
        k(    1) = (   0.0000000   0.0000000   0.0000000), wk =   0.0740741
        k(    2) = (   0.0000000   0.0000000   0.3333333), wk =   0.4444444
        k(    3) = (   0.0000000   0.3333333   0.3333333), wk =   0.8888889
        k(    4) = (   0.3333333   0.3333333   0.3333333), wk =   0.5925926

                       cryst. coord.
        k(    1) = (   0.0000000   0.0000000   0.0000000), wk =   0.0740741
        k(    2) = (   0.0000000   0.0000000   0.3333333), wk =   0.4444444
        k(    3) = (   0.0000000   0.3333333   0.3333333), wk =   0.8888889
        k(    4) = (   0.3333333   0.3333333   0.3333333), wk =   0.5925926

     Dense  grid:  1289759 G-vectors     FFT dimensions: ( 135, 135, 135)

     Smooth grid:   455863 G-vectors     FFT dimensions: (  96,  96,  96)

     Dynamical RAM for                 wfc:      91.74 MB

     Dynamical RAM for     wfc (w. buffer):     458.71 MB

     Dynamical RAM for           str. fact:      29.52 MB

     Dynamical RAM for           local pot:       0.00 MB

     Dynamical RAM for          nlocal pot:     208.70 MB

     Dynamical RAM for                qrad:       8.62 MB

     Dynamical RAM for          rho,v,vnew:      57.89 MB

     Dynamical RAM for               rhoin:      19.30 MB

     Dynamical RAM for            rho*nmix:     157.44 MB

     Dynamical RAM for           G-vectors:      38.64 MB

     Dynamical RAM for          h,s,v(r/c):       8.15 MB

     Dynamical RAM for          <psi|beta>:       1.55 MB

     Dynamical RAM for                 psi:     183.49 MB

     Dynamical RAM for                hpsi:     183.49 MB

     Dynamical RAM for                spsi:     183.49 MB

     Dynamical RAM for      wfcinit/wfcrot:     238.23 MB

     Dynamical RAM for           addusdens:    2066.41 MB

     Dynamical RAM for          addusforce:    2524.07 MB

     Dynamical RAM for         addusstress:    1977.85 MB

     Estimated static dynamical RAM per process >       1.04 GB

     Estimated max dynamical RAM per process >       3.51 GB

     Estimated total dynamical RAM >       7.01 GB

     Initial potential from superposition of free atoms

     starting charge  351.66429, renormalised to  352.00000
     Starting wfcs are  272 randomized atomic wfcs
     Checking if some PAW data can be deallocated... 
       PAW data deallocated on    1 nodes for type:  3

     total cpu time spent up to now is      303.8 secs

     Self-consistent Calculation

     iteration #  1     ecut=    40.00 Ry     beta= 0.40
     Davidson diagonalization with overlap
     ethr =  1.00E-02,  avg # of iterations =  3.2

     Threshold (ethr) on eigenvalues was too large:
     Diagonalizing with lowered threshold

     Davidson diagonalization with overlap
     ethr =  2.23E-04,  avg # of iterations = 11.2

     total cpu time spent up to now is     1442.5 secs

     total energy              =  -16565.69814876 Ry
     estimated scf accuracy    <       0.70018120 Ry

     iteration #  2     ecut=    40.00 Ry     beta= 0.40
     Davidson diagonalization with overlap
     ethr =  1.99E-04,  avg # of iterations =  2.5

     total cpu time spent up to now is     2021.7 secs

     total energy              =  -16565.80304658 Ry
     estimated scf accuracy    <       0.04916659 Ry

     iteration #  3     ecut=    40.00 Ry     beta= 0.40
     Davidson diagonalization with overlap
     c_bands:  3 eigenvalues not converged
     ethr =  1.40E-05,  avg # of iterations = 14.2

     total cpu time spent up to now is     2885.7 secs

     total energy              =  -16565.82847670 Ry
     estimated scf accuracy    <       0.01293857 Ry

     iteration #  4     ecut=    40.00 Ry     beta= 0.40
     Davidson diagonalization with overlap
     c_bands:  2 eigenvalues not converged
     ethr =  3.68E-06,  avg # of iterations =  8.2

     total cpu time spent up to now is     3530.1 secs

     total energy              =  -16565.83079343 Ry
     estimated scf accuracy    <       0.00205661 Ry

     iteration #  5     ecut=    40.00 Ry     beta= 0.40
     Davidson diagonalization with overlap
     ethr =  5.84E-07,  avg # of iterations =  5.2

     total cpu time spent up to now is     4137.2 secs

     total energy              =  -16565.83120475 Ry
     estimated scf accuracy    <       0.00023499 Ry

     iteration #  6     ecut=    40.00 Ry     beta= 0.40
     Davidson diagonalization with overlap
     ethr =  6.68E-08,  avg # of iterations =  4.8

     total cpu time spent up to now is     4854.1 secs

     total energy              =  -16565.83128735 Ry
     estimated scf accuracy    <       0.00005890 Ry

     iteration #  7     ecut=    40.00 Ry     beta= 0.40
     Davidson diagonalization with overlap
     ethr =  1.67E-08,  avg # of iterations =  4.5

     total cpu time spent up to now is     5507.0 secs

     total energy              =  -16565.83130541 Ry
     estimated scf accuracy    <       0.00000820 Ry

     iteration #  8     ecut=    40.00 Ry     beta= 0.40
     Davidson diagonalization with overlap
     ethr =  2.33E-09,  avg # of iterations =  5.0

     total cpu time spent up to now is     6100.1 secs

     total energy              =  -16565.83130787 Ry
     estimated scf accuracy    <       0.00000191 Ry

     iteration #  9     ecut=    40.00 Ry     beta= 0.40
     Davidson diagonalization with overlap
     ethr =  5.41E-10,  avg # of iterations =  5.2

     total cpu time spent up to now is     6815.5 secs

     total energy              =  -16565.83130861 Ry
     estimated scf accuracy    <       0.00000056 Ry

     iteration # 10     ecut=    40.00 Ry     beta= 0.40
     Davidson diagonalization with overlap
     ethr =  1.60E-10,  avg # of iterations =  3.2

     total cpu time spent up to now is     7364.0 secs

     total energy              =  -16565.83130868 Ry
     estimated scf accuracy    <       0.00000015 Ry

     iteration # 11     ecut=    40.00 Ry     beta= 0.40
     Davidson diagonalization with overlap
     ethr =  4.15E-11,  avg # of iterations =  5.2

     total cpu time spent up to now is     7992.0 secs

     total energy              =  -16565.83130873 Ry
     estimated scf accuracy    <          9.3E-09 Ry

     iteration # 12     ecut=    40.00 Ry     beta= 0.40
     Davidson diagonalization with overlap
     ethr =  2.64E-12,  avg # of iterations =  5.8

     total cpu time spent up to now is     8782.4 secs

     End of self-consistent calculation

          k = 0.0000 0.0000 0.0000 ( 57051 PWs)   bands (ev):

   -18.1484 -18.1480 -18.1480 -18.1480 -18.1477 -18.1477 -18.1477 -18.1475
   -13.4167 -13.4167 -13.4167 -13.4167 -13.4167 -13.4092 -13.4092 -13.4092
   -13.4017 -13.4017 -13.4017 -13.3937 -13.3936 -13.3936 -13.3936 -13.3936
   -13.3476 -13.3476 -13.3476 -13.3476 -13.3476 -13.3476 -13.3472 -13.3472
   -13.3472 -13.3472 -13.3472 -13.3472 -13.3472 -13.3472 -13.3472 -13.3472
   -13.3472 -13.3472 -13.3468 -13.3468 -13.3468 -13.3468 -13.3468 -13.3468
    -9.0989  -8.8759  -8.8759  -8.8759  -8.5964  -8.5964  -8.5964  -8.5266
    -8.5266  -8.5266  -8.5266  -8.5266  -8.5266  -8.5258  -8.5258  -8.5258
    -8.5194  -8.5194  -8.5194  -8.2530  -8.2530  -8.2503  -8.2503  -8.2503
    -5.3678  -4.9493  -4.9493  -4.9493  -4.9325  -4.9325  -4.9325  -4.9314
    -4.9314  -4.9314  -4.9314  -4.9314  -4.9314  -4.9270  -4.9270  -4.9270
    -4.9270  -4.9270  -4.9270  -4.9226  -4.9226  -4.9226  -4.9216  -4.9216
    -4.9216  -4.7521  -4.7521  -4.7521  -4.1674  -4.1674  -4.1674  -3.5708
    -0.3939  -0.3939  -0.3939  -0.2847  -0.2847  -0.2847  -0.2847  -0.2847
    -0.2847  -0.1349  -0.1349  -0.1349   0.8737   0.8737   0.8737   1.0293
     1.0293   1.0293   1.1941   1.1941   1.1941   1.5397   1.5397   1.5397
     1.5397   1.5397   1.5397   1.6320   1.6320   1.6320   1.6320   1.6320
     1.6320   1.6912   1.6912   1.6912   1.6912   1.6912   1.6912   1.7518
     1.7518   1.7518   1.8308   1.8308   1.8308   1.8396   1.8396   1.9010
     1.9010   1.9010   1.9328   1.9328   1.9328   1.9328   1.9328   1.9328
     2.0401   2.0401   2.0401   2.3803   2.3803   2.3803   2.4525   2.4525
     2.4525   2.4667   2.4667   2.4667   2.8867   2.8867   2.8867   3.3950
     4.6691   4.6691   4.6691   5.1309   5.1309   5.1309   5.1309   5.1309
     5.1309   5.4786   5.4786   5.4786   6.3410   7.1573   7.3272   7.3272
     7.7372   7.7372   7.7372   7.8487   7.8487   7.8487   8.0579   8.0579
     8.0581   8.1896   8.1896   8.1897   8.1959   8.1959   8.1959   8.3540
     8.3541   8.4381   8.4381

     occupation numbers 
     1.0000   1.0000   1.0000   1.0000   1.0000   1.0000   1.0000   1.0000
     1.0000   1.0000   1.0000   1.0000   1.0000   1.0000   1.0000   1.0000
     1.0000   1.0000   1.0000   1.0000   1.0000   1.0000   1.0000   1.0000
     1.0000   1.0000   1.0000   1.0000   1.0000   1.0000   1.0000   1.0000
     1.0000   1.0000   1.0000   1.0000   1.0000   1.0000   1.0000   1.0000
     1.0000   1.0000   1.0000   1.0000   1.0000   1.0000   1.0000   1.0000
     1.0000   1.0000   1.0000   1.0000   1.0000   1.0000   1.0000   1.0000
     1.0000   1.0000   1.0000   1.0000   1.0000   1.0000   1.0000   1.0000
     1.0000   1.0000   1.0000   1.0000   1.0000   1.0000   1.0000   1.0000
     1.0000   1.0000   1.0000   1.0000   1.0000   1.0000   1.0000   1.0000
     1.0000   1.0000   1.0000   1.0000   1.0000   1.0000   1.0000   1.0000
     1.0000   1.0000   1.0000   1.0000   1.0000   1.0000   1.0000   1.0000
     1.0000   1.0000   1.0000   1.0000   1.0000   1.0000   1.0000   1.0000
     1.0000   1.0000   1.0000   1.0000   1.0000   1.0000   1.0000   1.0000
     1.0000   1.0000   1.0000   1.0000   1.0000   1.0000   1.0000   1.0000
     1.0000   1.0000   1.0000   1.0000   1.0000   1.0000   1.0000   1.0000
     1.0000   1.0000   1.0000   1.0000   1.0000   1.0000   1.0000   1.0000
     1.0000   1.0000   1.0000   1.0000   1.0000   1.0000   1.0000   1.0000
     1.0000   1.0000   1.0000   1.0000   1.0000   1.0000   1.0000   1.0000
     1.0000   1.0000   1.0000   1.0000   1.0000   1.0000   1.0000   1.0000
     1.0000   1.0000   1.0000   1.0000   1.0000   1.0000   1.0000   1.0000
     1.0000   1.0000   1.0000   1.0000   1.0004   1.0004   1.0004   0.9073
     0.0000   0.0000   0.0000   0.0000   0.0000   0.0000   0.0000   0.0000
     0.0000   0.0000   0.0000   0.0000   0.0000   0.0000   0.0000   0.0000
     0.0000   0.0000   0.0000   0.0000   0.0000   0.0000   0.0000   0.0000
     0.0000   0.0000   0.0000   0.0000   0.0000   0.0000   0.0000   0.0000
     0.0000   0.0000   0.0000

          k = 0.0000 0.0000 0.3333 ( 56928 PWs)   bands (ev):

   -18.1483 -18.1481 -18.1480 -18.1480 -18.1478 -18.1478 -18.1477 -18.1475
   -13.4167 -13.4167 -13.4141 -13.4141 -13.4130 -13.4104 -13.4104 -13.4054
   -13.4053 -13.4004 -13.4004 -13.3975 -13.3964 -13.3964 -13.3936 -13.3936
   -13.3476 -13.3476 -13.3475 -13.3475 -13.3475 -13.3475 -13.3473 -13.3473
   -13.3473 -13.3473 -13.3472 -13.3472 -13.3472 -13.3472 -13.3471 -13.3471
   -13.3471 -13.3471 -13.3469 -13.3469 -13.3468 -13.3468 -13.3467 -13.3467
    -9.0591  -8.9554  -8.8356  -8.8356  -8.7239  -8.7239  -8.5784  -8.5399
    -8.5264  -8.5264  -8.5260  -8.5260  -8.5248  -8.5248  -8.5212  -8.5212
    -8.4334  -8.3994  -8.3994  -8.3048  -8.2893  -8.2893  -8.2523  -8.2510
    -5.2302  -4.9448  -4.9448  -4.9427  -4.9359  -4.9359  -4.9313  -4.9313
    -4.9311  -4.9311  -4.9303  -4.9303  -4.9293  -4.9288  -4.9284  -4.9284
    -4.9281  -4.9281  -4.9259  -4.9259  -4.9255  -4.9254  -4.9254  -4.9237
    -4.9237  -4.9232  -4.6259  -4.6259  -4.3390  -4.3390  -4.0490  -3.7580
    -0.3684  -0.3684  -0.3139  -0.3139  -0.2506  -0.2506  -0.1760  -0.1760
     0.0435   0.1406   0.1406   0.2926   0.8780   0.9115   0.9434   0.9434
     0.9893   1.0446   1.0446   1.0937   1.0937   1.1054   1.1054   1.2571
     1.2826   1.2826   1.5297   1.5297   1.5452   1.5452   1.6466   1.6466
     1.6762   1.6762   1.7095   1.7095   1.7514   1.7514   1.7874   1.8330
     1.8374   1.8587   1.8587   1.8594   1.8594   1.8619   1.8739   1.8739
     1.9149   1.9149   1.9519   1.9519   1.9588   1.9588   2.0002   2.0028
     2.0028   2.0379   2.0379   2.0681   2.3077   2.3077   2.3290   2.3290
     2.4184   2.4184   2.4560   2.4631   2.5888   2.5888   2.9170   3.0593
     4.8001   4.8001   5.0292   5.0292   5.2308   5.2308   5.4057   5.4057
     5.7649   6.1034   6.1034   6.4029   6.6117   7.2889   7.3159   7.3652
     7.4769   7.5499   7.7089   7.7089   7.8265   7.8584   7.9132   7.9504
     7.9504   7.9731   7.9731   8.0855   8.0873   8.0949   8.2190   8.2192
     8.2283   8.2283   8.3075

     occupation numbers 
     1.0000   1.0000   1.0000   1.0000   1.0000   1.0000   1.0000   1.0000
     1.0000   1.0000   1.0000   1.0000   1.0000   1.0000   1.0000   1.0000
     1.0000   1.0000   1.0000   1.0000   1.0000   1.0000   1.0000   1.0000
     1.0000   1.0000   1.0000   1.0000   1.0000   1.0000   1.0000   1.0000
     1.0000   1.0000   1.0000   1.0000   1.0000   1.0000   1.0000   1.0000
     1.0000   1.0000   1.0000   1.0000   1.0000   1.0000   1.0000   1.0000
     1.0000   1.0000   1.0000   1.0000   1.0000   1.0000   1.0000   1.0000
     1.0000   1.0000   1.0000   1.0000   1.0000   1.0000   1.0000   1.0000
     1.0000   1.0000   1.0000   1.0000   1.0000   1.0000   1.0000   1.0000
     1.0000   1.0000   1.0000   1.0000   1.0000   1.0000   1.0000   1.0000
     1.0000   1.0000   1.0000   1.0000   1.0000   1.0000   1.0000   1.0000
     1.0000   1.0000   1.0000   1.0000   1.0000   1.0000   1.0000   1.0000
     1.0000   1.0000   1.0000   1.0000   1.0000   1.0000   1.0000   1.0000
     1.0000   1.0000   1.0000   1.0000   1.0000   1.0000   1.0000   1.0000
     1.0000   1.0000   1.0000   1.0000   1.0000   1.0000   1.0000   1.0000
     1.0000   1.0000   1.0000   1.0000   1.0000   1.0000   1.0000   1.0000
     1.0000   1.0000   1.0000   1.0000   1.0000   1.0000   1.0000   1.0000
     1.0000   1.0000   1.0000   1.0000   1.0000   1.0000   1.0000   1.0000
     1.0000   1.0000   1.0000   1.0000   1.0000   1.0000   1.0000   1.0000
     1.0000   1.0000   1.0000   1.0000   1.0000   1.0000   1.0000   1.0000
     1.0000   1.0000   1.0000   1.0000   1.0000   1.0000   1.0000   1.0000
     1.0000   1.0000   1.0000   1.0000   1.0000   1.0000   1.0009   1.0143
     0.0000   0.0000   0.0000   0.0000   0.0000   0.0000   0.0000   0.0000
     0.0000   0.0000   0.0000   0.0000   0.0000   0.0000   0.0000   0.0000
     0.0000   0.0000   0.0000   0.0000   0.0000   0.0000   0.0000   0.0000
     0.0000   0.0000   0.0000   0.0000   0.0000   0.0000   0.0000   0.0000
     0.0000   0.0000   0.0000

          k = 0.0000 0.3333 0.3333 ( 57062 PWs)   bands (ev):

   -18.1482 -18.1480 -18.1480 -18.1479 -18.1479 -18.1477 -18.1477 -18.1476
   -13.4148 -13.4142 -13.4141 -13.4111 -13.4111 -13.4110 -13.4066 -13.4066
   -13.4041 -13.4041 -13.3996 -13.3995 -13.3995 -13.3963 -13.3963 -13.3956
   -13.3475 -13.3475 -13.3475 -13.3475 -13.3474 -13.3474 -13.3473 -13.3473
   -13.3473 -13.3473 -13.3472 -13.3472 -13.3472 -13.3472 -13.3471 -13.3471
   -13.3471 -13.3470 -13.3470 -13.3469 -13.3469 -13.3469 -13.3469 -13.3468
    -9.0198  -8.9166  -8.9166  -8.8129  -8.7984  -8.6958  -8.6958  -8.6220
    -8.5257  -8.5251  -8.5251  -8.5225  -8.4615  -8.4553  -8.4362  -8.4362
    -8.4126  -8.4126  -8.3723  -8.3250  -8.3210  -8.2890  -8.2890  -8.2797
    -5.0997  -4.9437  -4.9386  -4.9382  -4.9382  -4.9359  -4.9359  -4.9355
    -4.9326  -4.9316  -4.9311  -4.9299  -4.9299  -4.9298  -4.9298  -4.9278
    -4.9272  -4.9272  -4.9265  -4.9265  -4.9258  -4.9249  -4.9243  -4.9241
    -4.9241  -4.7944  -4.7944  -4.5082  -4.5052  -4.2216  -4.2215  -3.9370
    -0.3409  -0.2822  -0.2822  -0.2135  -0.0285   0.1015   0.1018   0.1018
     0.1587   0.2416   0.2416   0.2461   0.8797   0.8907   0.8907   0.9263
     0.9698   0.9698   1.0076   1.0555   1.0555   1.0764   1.0783   1.0896
     1.1125   1.2849   1.2849   1.3558   1.3763   1.5096   1.5096   1.5139
     1.5628   1.5628   1.6627   1.6879   1.6942   1.7354   1.7354   1.7500
     1.8283   1.8821   1.8821   1.8825   1.8880   1.9091   1.9091   1.9199
     1.9504   1.9504   1.9505   1.9518   2.0052   2.0052   2.0373   2.0655
     2.0655   2.0871   2.1047   2.1518   2.1518   2.2331   2.2474   2.2787
     2.2856   2.3356   2.3356   2.3742   2.4394   2.5991   2.5991   2.7104
     4.9210   5.1354   5.1354   5.3239   5.7864   5.9001   6.0146   6.0146
     6.1396   6.2177   6.3326   6.3326   6.8377   7.3755   7.3755   7.4095
     7.4095   7.5110   7.5194   7.6028   7.6206   7.6647   7.7894   7.7894
     7.8407   7.9057   7.9084   7.9085   7.9167   7.9687   7.9818   8.0014
     8.0014   8.1639   8.1640

     occupation numbers 
     1.0000   1.0000   1.0000   1.0000   1.0000   1.0000   1.0000   1.0000
     1.0000   1.0000   1.0000   1.0000   1.0000   1.0000   1.0000   1.0000
     1.0000   1.0000   1.0000   1.0000   1.0000   1.0000   1.0000   1.0000
     1.0000   1.0000   1.0000   1.0000   1.0000   1.0000   1.0000   1.0000
     1.0000   1.0000   1.0000   1.0000   1.0000   1.0000   1.0000   1.0000
     1.0000   1.0000   1.0000   1.0000   1.0000   1.0000   1.0000   1.0000
     1.0000   1.0000   1.0000   1.0000   1.0000   1.0000   1.0000   1.0000
     1.0000   1.0000   1.0000   1.0000   1.0000   1.0000   1.0000   1.0000
     1.0000   1.0000   1.0000   1.0000   1.0000   1.0000   1.0000   1.0000
     1.0000   1.0000   1.0000   1.0000   1.0000   1.0000   1.0000   1.0000
     1.0000   1.0000   1.0000   1.0000   1.0000   1.0000   1.0000   1.0000
     1.0000   1.0000   1.0000   1.0000   1.0000   1.0000   1.0000   1.0000
     1.0000   1.0000   1.0000   1.0000   1.0000   1.0000   1.0000   1.0000
     1.0000   1.0000   1.0000   1.0000   1.0000   1.0000   1.0000   1.0000
     1.0000   1.0000   1.0000   1.0000   1.0000   1.0000   1.0000   1.0000
     1.0000   1.0000   1.0000   1.0000   1.0000   1.0000   1.0000   1.0000
     1.0000   1.0000   1.0000   1.0000   1.0000   1.0000   1.0000   1.0000
     1.0000   1.0000   1.0000   1.0000   1.0000   1.0000   1.0000   1.0000
     1.0000   1.0000   1.0000   1.0000   1.0000   1.0000   1.0000   1.0000
     1.0000   1.0000   1.0000   1.0000   1.0000   1.0000   1.0000   1.0000
     1.0000   1.0000   1.0000   1.0000   1.0000   1.0000   1.0000   1.0000
     1.0000   1.0000   1.0000   1.0000   1.0000   1.0000   1.0000   1.0000
     0.0000   0.0000   0.0000   0.0000   0.0000   0.0000   0.0000   0.0000
     0.0000   0.0000   0.0000   0.0000   0.0000   0.0000   0.0000   0.0000
     0.0000   0.0000   0.0000   0.0000   0.0000   0.0000   0.0000   0.0000
     0.0000   0.0000   0.0000   0.0000   0.0000   0.0000   0.0000   0.0000
     0.0000   0.0000   0.0000

          k = 0.3333 0.3333 0.3333 ( 56983 PWs)   bands (ev):

   -18.1481 -18.1480 -18.1480 -18.1480 -18.1478 -18.1478 -18.1478 -18.1477
   -13.4110 -13.4110 -13.4110 -13.4110 -13.4110 -13.4072 -13.4072 -13.4072
   -13.4034 -13.4034 -13.4034 -13.3995 -13.3995 -13.3995 -13.3995 -13.3995
   -13.3474 -13.3474 -13.3474 -13.3474 -13.3474 -13.3474 -13.3472 -13.3472
   -13.3472 -13.3472 -13.3472 -13.3472 -13.3472 -13.3472 -13.3472 -13.3472
   -13.3472 -13.3472 -13.3470 -13.3470 -13.3469 -13.3469 -13.3469 -13.3469
    -8.9813  -8.8798  -8.8798  -8.8798  -8.7814  -8.7814  -8.7814  -8.6980
    -8.4600  -8.4600  -8.4600  -8.4569  -8.4569  -8.4377  -8.4377  -8.4377
    -8.3939  -8.3939  -8.3939  -8.3240  -8.3240  -8.3220  -8.3220  -8.3220
    -4.9807  -4.9406  -4.9406  -4.9351  -4.9351  -4.9351  -4.9343  -4.9343
    -4.9343  -4.9323  -4.9323  -4.9323  -4.9318  -4.9318  -4.9308  -4.9308
    -4.9308  -4.9254  -4.9254  -4.9254  -4.9225  -4.9224  -4.9224  -4.9224
    -4.9173  -4.6736  -4.6736  -4.6736  -4.3909  -4.3909  -4.3909  -4.1102
     0.0009   0.0009   0.0655   0.0655   0.0655   0.1956   0.1956   0.1956
     0.1980   0.1980   0.1980   0.2652   0.9027   0.9027   0.9027   0.9065
     0.9065   0.9065   0.9407   0.9407   0.9407   0.9767   0.9819   0.9819
     1.2698   1.2698   1.3078   1.3078   1.3078   1.4408   1.4408   1.4408
     1.4945   1.4945   1.4945   1.6011   1.6011   1.6011   1.6439   1.6439
     1.7828   1.8131   1.8131   1.8131   1.8718   1.8718   1.8718   2.0278
     2.0451   2.0451   2.0451   2.0829   2.0829   2.0873   2.0873   2.0873
     2.1003   2.1003   2.1003   2.1688   2.1688   2.1688   2.2165   2.2481
     2.2481   2.2481   2.2674   2.2674   2.2862   2.2862   2.2862   2.3089
     5.8729   5.8729   6.0201   6.0502   6.0502   6.0502   6.1329   6.1329
     6.1329   6.2531   6.2531   6.2531   6.9966   7.3809   7.3809   7.3809
     7.3984   7.3984   7.3984   7.5560   7.6371   7.6371   7.6371   7.6909
     7.6909   7.7466   7.7467   7.7468   7.7731   7.7760   7.7760   7.7761
     7.8722   7.8722   8.1829

     occupation numbers 
     1.0000   1.0000   1.0000   1.0000   1.0000   1.0000   1.0000   1.0000
     1.0000   1.0000   1.0000   1.0000   1.0000   1.0000   1.0000   1.0000
     1.0000   1.0000   1.0000   1.0000   1.0000   1.0000   1.0000   1.0000
     1.0000   1.0000   1.0000   1.0000   1.0000   1.0000   1.0000   1.0000
     1.0000   1.0000   1.0000   1.0000   1.0000   1.0000   1.0000   1.0000
     1.0000   1.0000   1.0000   1.0000   1.0000   1.0000   1.0000   1.0000
     1.0000   1.0000   1.0000   1.0000   1.0000   1.0000   1.0000   1.0000
     1.0000   1.0000   1.0000   1.0000   1.0000   1.0000   1.0000   1.0000
     1.0000   1.0000   1.0000   1.0000   1.0000   1.0000   1.0000   1.0000
     1.0000   1.0000   1.0000   1.0000   1.0000   1.0000   1.0000   1.0000
     1.0000   1.0000   1.0000   1.0000   1.0000   1.0000   1.0000   1.0000
     1.0000   1.0000   1.0000   1.0000   1.0000   1.0000   1.0000   1.0000
     1.0000   1.0000   1.0000   1.0000   1.0000   1.0000   1.0000   1.0000
     1.0000   1.0000   1.0000   1.0000   1.0000   1.0000   1.0000   1.0000
     1.0000   1.0000   1.0000   1.0000   1.0000   1.0000   1.0000   1.0000
     1.0000   1.0000   1.0000   1.0000   1.0000   1.0000   1.0000   1.0000
     1.0000   1.0000   1.0000   1.0000   1.0000   1.0000   1.0000   1.0000
     1.0000   1.0000   1.0000   1.0000   1.0000   1.0000   1.0000   1.0000
     1.0000   1.0000   1.0000   1.0000   1.0000   1.0000   1.0000   1.0000
     1.0000   1.0000   1.0000   1.0000   1.0000   1.0000   1.0000   1.0000
     1.0000   1.0000   1.0000   1.0000   1.0000   1.0000   1.0000   1.0000
     1.0000   1.0000   1.0000   1.0000   1.0000   1.0000   1.0000   1.0000
     0.0000   0.0000   0.0000   0.0000   0.0000   0.0000   0.0000   0.0000
     0.0000   0.0000   0.0000   0.0000   0.0000   0.0000   0.0000   0.0000
     0.0000   0.0000   0.0000   0.0000   0.0000   0.0000   0.0000   0.0000
     0.0000   0.0000   0.0000   0.0000   0.0000   0.0000   0.0000   0.0000
     0.0000   0.0000   0.0000

     the Fermi energy is     3.5394 ev

!    total energy              =  -16565.83130873 Ry
     estimated scf accuracy    <          4.1E-10 Ry
     smearing contrib. (-TS)   =       0.00028135 Ry
     internal energy E=F+TS    =  -16565.83159008 Ry

     The total energy is F=E-TS. E is the sum of the following terms:
     one-electron contribution =    -735.87104668 Ry
     hartree contribution      =     539.17792553 Ry
     xc contribution           =   -1598.87188381 Ry
     ewald contribution        =   -1250.07105282 Ry
     one-center paw contrib.   =  -13520.19553230 Ry
      -> PAW hartree energy AE =     829.11970110 Ry
      -> PAW hartree energy PS =    -827.34865355 Ry
      -> PAW xc energy AE      =   -7623.47100077 Ry
      -> PAW xc energy PS      =     512.04970322 Ry
      -> total E_H with PAW    =     540.94897308 Ry
      -> total E_XC with PAW   =   -8710.29318137 Ry

     convergence has been achieved in  12 iterations

     Forces acting on atoms (cartesian axes, Ry/au):

     atom    1 type  1   force =    -0.00000001   -0.00000001   -0.00000001
     atom    2 type  1   force =    -0.00000001   -0.00000001    0.00000001
     atom    3 type  1   force =    -0.00000001    0.00000001   -0.00000001
     atom    4 type  1   force =    -0.00000001    0.00000001    0.00000001
     atom    5 type  1   force =     0.00000001   -0.00000001   -0.00000001
     atom    6 type  1   force =     0.00000001   -0.00000001    0.00000001
     atom    7 type  1   force =     0.00000001    0.00000001   -0.00000001
     atom    8 type  1   force =     0.00000001    0.00000001    0.00000001
     atom    9 type  3   force =     0.00000000    0.00000000    0.00000000
     atom   10 type  3   force =     0.00000000    0.00000000    0.00000000
     atom   11 type  3   force =     0.00000000    0.00000000    0.00000000
     atom   12 type  3   force =     0.00000000    0.00000000    0.00000000
     atom   13 type  3   force =     0.00000000    0.00000000    0.00000000
     atom   14 type  3   force =     0.00000000    0.00000000    0.00000000
     atom   15 type  3   force =     0.00000000    0.00000000    0.00000000
     atom   16 type  3   force =     0.00000000    0.00000000    0.00000000
     atom   17 type  2   force =     0.00000000   -0.00000000    0.00000319
     atom   18 type  2   force =     0.00000000   -0.00000000   -0.00000319
     atom   19 type  2   force =     0.00000000    0.00000000    0.00000367
     atom   20 type  2   force =     0.00000000    0.00000000   -0.00000367
     atom   21 type  2   force =     0.00000000    0.00000000    0.00000367
     atom   22 type  2   force =     0.00000000    0.00000000   -0.00000367
     atom   23 type  2   force =     0.00000000    0.00000000    0.00000392
     atom   24 type  2   force =     0.00000000    0.00000000   -0.00000392
     atom   25 type  2   force =     0.00000000    0.00000319    0.00000000
     atom   26 type  2   force =     0.00000000    0.00000367    0.00000000
     atom   27 type  2   force =     0.00000000   -0.00000319    0.00000000
     atom   28 type  2   force =     0.00000000   -0.00000367    0.00000000
     atom   29 type  2   force =     0.00000000    0.00000367    0.00000000
     atom   30 type  2   force =     0.00000000    0.00000392    0.00000000
     atom   31 type  2   force =     0.00000000   -0.00000367    0.00000000
     atom   32 type  2   force =     0.00000000   -0.00000392    0.00000000
     atom   33 type  2   force =     0.00000319    0.00000000    0.00000000
     atom   34 type  2   force =     0.00000367    0.00000000    0.00000000
     atom   35 type  2   force =     0.00000367    0.00000000   -0.00000000
     atom   36 type  2   force =     0.00000392    0.00000000    0.00000000
     atom   37 type  2   force =    -0.00000319    0.00000000    0.00000000
     atom   38 type  2   force =    -0.00000367    0.00000000    0.00000000
     atom   39 type  2   force =    -0.00000367    0.00000000   -0.00000000
     atom   40 type  2   force =    -0.00000392    0.00000000    0.00000000
     The non-local contrib.  to forces
     atom    1 type  1   force =    -0.00000105   -0.00000105   -0.00000105
     atom    2 type  1   force =    -0.00000105   -0.00000105    0.00000105
     atom    3 type  1   force =    -0.00000105    0.00000105   -0.00000105
     atom    4 type  1   force =    -0.00000105    0.00000105    0.00000105
     atom    5 type  1   force =     0.00000105   -0.00000105   -0.00000105
     atom    6 type  1   force =     0.00000105   -0.00000105    0.00000105
     atom    7 type  1   force =     0.00000105    0.00000105   -0.00000105
     atom    8 type  1   force =     0.00000105    0.00000105    0.00000105
     atom    9 type  3   force =     0.00000000    0.00000000    0.00000000
     atom   10 type  3   force =     0.00000000    0.00000000    0.00000000
     atom   11 type  3   force =     0.00000000    0.00000000    0.00000000
     atom   12 type  3   force =     0.00000000    0.00000000    0.00000000
     atom   13 type  3   force =     0.00000000    0.00000000    0.00000000
     atom   14 type  3   force =     0.00000000    0.00000000    0.00000000
     atom   15 type  3   force =     0.00000000    0.00000000    0.00000000
     atom   16 type  3   force =     0.00000000    0.00000000    0.00000000
     atom   17 type  2   force =     0.00000000    0.00000000    0.00000112
     atom   18 type  2   force =     0.00000000    0.00000000   -0.00000112
     atom   19 type  2   force =     0.00000000    0.00000000    0.00000092
     atom   20 type  2   force =     0.00000000    0.00000000   -0.00000092
     atom   21 type  2   force =     0.00000000    0.00000000    0.00000092
     atom   22 type  2   force =     0.00000000    0.00000000   -0.00000092
     atom   23 type  2   force =     0.00000000    0.00000000    0.00000207
     atom   24 type  2   force =     0.00000000    0.00000000   -0.00000207
     atom   25 type  2   force =     0.00000000    0.00000112    0.00000000
     atom   26 type  2   force =     0.00000000    0.00000092    0.00000000
     atom   27 type  2   force =     0.00000000   -0.00000112    0.00000000
     atom   28 type  2   force =     0.00000000   -0.00000092    0.00000000
     atom   29 type  2   force =     0.00000000    0.00000092    0.00000000
     atom   30 type  2   force =     0.00000000    0.00000207    0.00000000
     atom   31 type  2   force =    -0.00000000   -0.00000092    0.00000000
     atom   32 type  2   force =     0.00000000   -0.00000207    0.00000000
     atom   33 type  2   force =     0.00000112   -0.00000000    0.00000000
     atom   34 type  2   force =     0.00000092    0.00000000    0.00000000
     atom   35 type  2   force =     0.00000092    0.00000000   -0.00000000
     atom   36 type  2   force =     0.00000207    0.00000000    0.00000000
     atom   37 type  2   force =    -0.00000112    0.00000000    0.00000000
     atom   38 type  2   force =    -0.00000092    0.00000000    0.00000000
     atom   39 type  2   force =    -0.00000092    0.00000000    0.00000000
     atom   40 type  2   force =    -0.00000207    0.00000000    0.00000000
     The ionic contribution  to forces
     atom    1 type  1   force =    -0.00000000   -0.00000000   -0.00000000
     atom    2 type  1   force =    -0.00000000   -0.00000000    0.00000000
     atom    3 type  1   force =    -0.00000000    0.00000000   -0.00000000
     atom    4 type  1   force =    -0.00000000    0.00000000    0.00000000
     atom    5 type  1   force =     0.00000000   -0.00000000   -0.00000000
     atom    6 type  1   force =     0.00000000   -0.00000000    0.00000000
     atom    7 type  1   force =     0.00000000    0.00000000   -0.00000000
     atom    8 type  1   force =     0.00000000    0.00000000    0.00000000
     atom    9 type  3   force =    -0.00000000   -0.00000000   -0.00000000
     atom   10 type  3   force =    -0.00000000   -0.00000000    0.00000000
     atom   11 type  3   force =    -0.00000000    0.00000000   -0.00000000
     atom   12 type  3   force =    -0.00000000   -0.00000000   -0.00000000
     atom   13 type  3   force =     0.00000000   -0.00000000   -0.00000000
     atom   14 type  3   force =     0.00000000   -0.00000000   -0.00000000
     atom   15 type  3   force =     0.00000000   -0.00000000   -0.00000000
     atom   16 type  3   force =     0.00000000   -0.00000000   -0.00000000
     atom   17 type  2   force =    -0.00000000   -0.00000000   -0.00000000
     atom   18 type  2   force =    -0.00000000   -0.00000000    0.00000000
     atom   19 type  2   force =    -0.00000000    0.00000000   -0.00000000
     atom   20 type  2   force =    -0.00000000    0.00000000    0.00000000
     atom   21 type  2   force =     0.00000000   -0.00000000   -0.00000000
     atom   22 type  2   force =     0.00000000   -0.00000000    0.00000000
     atom   23 type  2   force =     0.00000000    0.00000000   -0.00000000
     atom   24 type  2   force =     0.00000000    0.00000000    0.00000000
     atom   25 type  2   force =    -0.00000000   -0.00000000   -0.00000000
     atom   26 type  2   force =    -0.00000000   -0.00000000    0.00000000
     atom   27 type  2   force =    -0.00000000    0.00000000   -0.00000000
     atom   28 type  2   force =    -0.00000000    0.00000000    0.00000000
     atom   29 type  2   force =     0.00000000   -0.00000000   -0.00000000
     atom   30 type  2   force =     0.00000000   -0.00000000    0.00000000
     atom   31 type  2   force =     0.00000000    0.00000000   -0.00000000
     atom   32 type  2   force =     0.00000000    0.00000000    0.00000000
     atom   33 type  2   force =    -0.00000000   -0.00000000   -0.00000000
     atom   34 type  2   force =    -0.00000000   -0.00000000    0.00000000
     atom   35 type  2   force =    -0.00000000    0.00000000   -0.00000000
     atom   36 type  2   force =    -0.00000000    0.00000000    0.00000000
     atom   37 type  2   force =     0.00000000   -0.00000000   -0.00000000
     atom   38 type  2   force =     0.00000000   -0.00000000    0.00000000
     atom   39 type  2   force =     0.00000000    0.00000000   -0.00000000
     atom   40 type  2   force =     0.00000000    0.00000000    0.00000000
     The local contribution  to forces
     atom    1 type  1   force =    -0.00000061   -0.00000061   -0.00000061
     atom    2 type  1   force =    -0.00000061   -0.00000061    0.00000061
     atom    3 type  1   force =    -0.00000061    0.00000061   -0.00000061
     atom    4 type  1   force =    -0.00000061    0.00000061    0.00000061
     atom    5 type  1   force =     0.00000061   -0.00000061   -0.00000061
     atom    6 type  1   force =     0.00000061   -0.00000061    0.00000061
     atom    7 type  1   force =     0.00000061    0.00000061   -0.00000061
     atom    8 type  1   force =     0.00000061    0.00000061    0.00000061
     atom    9 type  3   force =    -0.00000000   -0.00000000    0.00000000
     atom   10 type  3   force =    -0.00000000   -0.00000000    0.00000000
     atom   11 type  3   force =    -0.00000000    0.00000000    0.00000000
     atom   12 type  3   force =    -0.00000000    0.00000000    0.00000000
     atom   13 type  3   force =     0.00000000   -0.00000000    0.00000000
     atom   14 type  3   force =     0.00000000   -0.00000000    0.00000000
     atom   15 type  3   force =     0.00000000    0.00000000    0.00000000
     atom   16 type  3   force =     0.00000000    0.00000000    0.00000000
     atom   17 type  2   force =    -0.00000000   -0.00000000   -0.00000194
     atom   18 type  2   force =    -0.00000000   -0.00000000    0.00000194
     atom   19 type  2   force =    -0.00000000    0.00000000   -0.00000223
     atom   20 type  2   force =    -0.00000000    0.00000000    0.00000223
     atom   21 type  2   force =     0.00000000   -0.00000000   -0.00000223
     atom   22 type  2   force =     0.00000000   -0.00000000    0.00000223
     atom   23 type  2   force =     0.00000000    0.00000000    0.00000259
     atom   24 type  2   force =     0.00000000    0.00000000   -0.00000259
     atom   25 type  2   force =    -0.00000000   -0.00000194    0.00000000
     atom   26 type  2   force =     0.00000000   -0.00000223    0.00000000
     atom   27 type  2   force =    -0.00000000    0.00000194   -0.00000000
     atom   28 type  2   force =    -0.00000000    0.00000223    0.00000000
     atom   29 type  2   force =     0.00000000   -0.00000223   -0.00000000
     atom   30 type  2   force =     0.00000000    0.00000259    0.00000000
     atom   31 type  2   force =     0.00000000    0.00000223   -0.00000000
     atom   32 type  2   force =     0.00000000   -0.00000259    0.00000000
     atom   33 type  2   force =    -0.00000194   -0.00000000   -0.00000000
     atom   34 type  2   force =    -0.00000223   -0.00000000    0.00000000
     atom   35 type  2   force =    -0.00000223    0.00000000   -0.00000000
     atom   36 type  2   force =     0.00000259    0.00000000    0.00000000
     atom   37 type  2   force =     0.00000194   -0.00000000   -0.00000000
     atom   38 type  2   force =     0.00000223   -0.00000000    0.00000000
     atom   39 type  2   force =     0.00000223    0.00000000   -0.00000000
     atom   40 type  2   force =    -0.00000259    0.00000000    0.00000000
     The core correction contribution to forces
     atom    1 type  1   force =     0.00000106    0.00000106    0.00000106
     atom    2 type  1   force =     0.00000106    0.00000106   -0.00000106
     atom    3 type  1   force =     0.00000106   -0.00000106    0.00000106
     atom    4 type  1   force =     0.00000106   -0.00000106   -0.00000106
     atom    5 type  1   force =    -0.00000106    0.00000106    0.00000106
     atom    6 type  1   force =    -0.00000106    0.00000106   -0.00000106
     atom    7 type  1   force =    -0.00000106   -0.00000106    0.00000106
     atom    8 type  1   force =    -0.00000106   -0.00000106   -0.00000106
     atom    9 type  3   force =     0.00000000    0.00000000    0.00000000
     atom   10 type  3   force =     0.00000000    0.00000000    0.00000000
     atom   11 type  3   force =     0.00000000    0.00000000    0.00000000
     atom   12 type  3   force =     0.00000000    0.00000000    0.00000000
     atom   13 type  3   force =     0.00000000    0.00000000    0.00000000
     atom   14 type  3   force =     0.00000000    0.00000000    0.00000000
     atom   15 type  3   force =     0.00000000    0.00000000    0.00000000
     atom   16 type  3   force =     0.00000000    0.00000000    0.00000000
     atom   17 type  2   force =     0.00000000    0.00000000    0.00000214
     atom   18 type  2   force =     0.00000000    0.00000000   -0.00000214
     atom   19 type  2   force =     0.00000000   -0.00000000    0.00000235
     atom   20 type  2   force =     0.00000000   -0.00000000   -0.00000235
     atom   21 type  2   force =    -0.00000000    0.00000000    0.00000235
     atom   22 type  2   force =     0.00000000    0.00000000   -0.00000235
     atom   23 type  2   force =    -0.00000000   -0.00000000    0.00000263
     atom   24 type  2   force =    -0.00000000   -0.00000000   -0.00000263
     atom   25 type  2   force =     0.00000000    0.00000214    0.00000000
     atom   26 type  2   force =     0.00000000    0.00000235    0.00000000
     atom   27 type  2   force =     0.00000000   -0.00000214    0.00000000
     atom   28 type  2   force =     0.00000000   -0.00000235    0.00000000
     atom   29 type  2   force =    -0.00000000    0.00000235    0.00000000
     atom   30 type  2   force =    -0.00000000    0.00000263   -0.00000000
     atom   31 type  2   force =     0.00000000   -0.00000235    0.00000000
     atom   32 type  2   force =    -0.00000000   -0.00000263   -0.00000000
     atom   33 type  2   force =     0.00000214    0.00000000    0.00000000
     atom   34 type  2   force =     0.00000235    0.00000000    0.00000000
     atom   35 type  2   force =     0.00000235   -0.00000000    0.00000000
     atom   36 type  2   force =     0.00000263   -0.00000000    0.00000000
     atom   37 type  2   force =    -0.00000214    0.00000000    0.00000000
     atom   38 type  2   force =    -0.00000235    0.00000000    0.00000000
     atom   39 type  2   force =    -0.00000235    0.00000000    0.00000000
     atom   40 type  2   force =    -0.00000263   -0.00000000    0.00000000
     The Hubbard contrib.    to forces
     atom    1 type  1   force =     0.00000000    0.00000000    0.00000000
     atom    2 type  1   force =     0.00000000    0.00000000    0.00000000
     atom    3 type  1   force =     0.00000000    0.00000000    0.00000000
     atom    4 type  1   force =     0.00000000    0.00000000    0.00000000
     atom    5 type  1   force =     0.00000000    0.00000000    0.00000000
     atom    6 type  1   force =     0.00000000    0.00000000    0.00000000
     atom    7 type  1   force =     0.00000000    0.00000000    0.00000000
     atom    8 type  1   force =     0.00000000    0.00000000    0.00000000
     atom    9 type  3   force =     0.00000000    0.00000000    0.00000000
     atom   10 type  3   force =     0.00000000    0.00000000    0.00000000
     atom   11 type  3   force =     0.00000000    0.00000000    0.00000000
     atom   12 type  3   force =     0.00000000    0.00000000    0.00000000
     atom   13 type  3   force =     0.00000000    0.00000000    0.00000000
     atom   14 type  3   force =     0.00000000    0.00000000    0.00000000
     atom   15 type  3   force =     0.00000000    0.00000000    0.00000000
     atom   16 type  3   force =     0.00000000    0.00000000    0.00000000
     atom   17 type  2   force =     0.00000000    0.00000000    0.00000000
     atom   18 type  2   force =     0.00000000    0.00000000    0.00000000
     atom   19 type  2   force =     0.00000000    0.00000000    0.00000000
     atom   20 type  2   force =     0.00000000    0.00000000    0.00000000
     atom   21 type  2   force =     0.00000000    0.00000000    0.00000000
     atom   22 type  2   force =     0.00000000    0.00000000    0.00000000
     atom   23 type  2   force =     0.00000000    0.00000000    0.00000000
     atom   24 type  2   force =     0.00000000    0.00000000    0.00000000
     atom   25 type  2   force =     0.00000000    0.00000000    0.00000000
     atom   26 type  2   force =     0.00000000    0.00000000    0.00000000
     atom   27 type  2   force =     0.00000000    0.00000000    0.00000000
     atom   28 type  2   force =     0.00000000    0.00000000    0.00000000
     atom   29 type  2   force =     0.00000000    0.00000000    0.00000000
     atom   30 type  2   force =     0.00000000    0.00000000    0.00000000
     atom   31 type  2   force =     0.00000000    0.00000000    0.00000000
     atom   32 type  2   force =     0.00000000    0.00000000    0.00000000
     atom   33 type  2   force =     0.00000000    0.00000000    0.00000000
     atom   34 type  2   force =     0.00000000    0.00000000    0.00000000
     atom   35 type  2   force =     0.00000000    0.00000000    0.00000000
     atom   36 type  2   force =     0.00000000    0.00000000    0.00000000
     atom   37 type  2   force =     0.00000000    0.00000000    0.00000000
     atom   38 type  2   force =     0.00000000    0.00000000    0.00000000
     atom   39 type  2   force =     0.00000000    0.00000000    0.00000000
     atom   40 type  2   force =     0.00000000    0.00000000    0.00000000
     The SCF correction term to forces
     atom    1 type  1   force =     0.00000059    0.00000059    0.00000059
     atom    2 type  1   force =     0.00000059    0.00000059   -0.00000059
     atom    3 type  1   force =     0.00000059   -0.00000059    0.00000059
     atom    4 type  1   force =     0.00000059   -0.00000059   -0.00000059
     atom    5 type  1   force =    -0.00000059    0.00000059    0.00000059
     atom    6 type  1   force =    -0.00000059    0.00000059   -0.00000059
     atom    7 type  1   force =    -0.00000059   -0.00000059    0.00000059
     atom    8 type  1   force =    -0.00000059   -0.00000059   -0.00000059
     atom    9 type  3   force =     0.00000000    0.00000000    0.00000000
     atom   10 type  3   force =    -0.00000000   -0.00000000    0.00000000
     atom   11 type  3   force =    -0.00000000    0.00000000    0.00000000
     atom   12 type  3   force =    -0.00000000   -0.00000000    0.00000000
     atom   13 type  3   force =    -0.00000000    0.00000000    0.00000000
     atom   14 type  3   force =    -0.00000000   -0.00000000    0.00000000
     atom   15 type  3   force =     0.00000000   -0.00000000    0.00000000
     atom   16 type  3   force =     0.00000000   -0.00000000    0.00000000
     atom   17 type  2   force =     0.00000000    0.00000000    0.00000187
     atom   18 type  2   force =     0.00000000    0.00000000   -0.00000187
     atom   19 type  2   force =    -0.00000000   -0.00000000    0.00000262
     atom   20 type  2   force =     0.00000000   -0.00000000   -0.00000262
     atom   21 type  2   force =     0.00000000   -0.00000000    0.00000262
     atom   22 type  2   force =     0.00000000   -0.00000000   -0.00000262
     atom   23 type  2   force =    -0.00000000   -0.00000000   -0.00000336
     atom   24 type  2   force =    -0.00000000   -0.00000000    0.00000336
     atom   25 type  2   force =     0.00000000    0.00000187   -0.00000000
     atom   26 type  2   force =    -0.00000000    0.00000262    0.00000000
     atom   27 type  2   force =    -0.00000000   -0.00000187   -0.00000000
     atom   28 type  2   force =     0.00000000   -0.00000262   -0.00000000
     atom   29 type  2   force =     0.00000000    0.00000262   -0.00000000
     atom   30 type  2   force =     0.00000000   -0.00000336    0.00000000
     atom   31 type  2   force =     0.00000000   -0.00000262   -0.00000000
     atom   32 type  2   force =    -0.00000000    0.00000336   -0.00000000
     atom   33 type  2   force =     0.00000187    0.00000000   -0.00000000
     atom   34 type  2   force =     0.00000262    0.00000000    0.00000000
     atom   35 type  2   force =     0.00000262    0.00000000   -0.00000000
     atom   36 type  2   force =    -0.00000336   -0.00000000    0.00000000
     atom   37 type  2   force =    -0.00000187    0.00000000   -0.00000000
     atom   38 type  2   force =    -0.00000262   -0.00000000    0.00000000
     atom   39 type  2   force =    -0.00000262    0.00000000   -0.00000000
     atom   40 type  2   force =     0.00000336   -0.00000000    0.00000000

     Total force =     0.000018     Total SCF correction =     0.000013
     SCF correction compared to forces is large: reduce conv_thr to get better values


     Computing stress (Cartesian axis) and pressure

          total   stress  (Ry/bohr**3)                   (kbar)     P=        9.04
   0.00006147   0.00000000   0.00000000            9.04        0.00        0.00
   0.00000000   0.00006147   0.00000000            0.00        9.04        0.00
   0.00000000   0.00000000   0.00006147            0.00        0.00        9.04

     kinetic stress (kbar)   3637.53      0.00      0.00
                                0.00   3637.53      0.00
                                0.00      0.00   3637.53

     local   stress (kbar)   -273.64      0.00     -0.00
                                0.00   -273.64      0.00
                               -0.00      0.00   -273.64

     nonloc. stress (kbar)    941.75      0.00      0.00
                                0.00    941.75      0.00
                                0.00      0.00    941.75

     hartree stress (kbar)   1981.90     -0.00      0.00
                               -0.00   1981.90     -0.00
                                0.00     -0.00   1981.90

     exc-cor stress (kbar)  12627.53      0.00      0.00
                                0.00  12627.53     -0.00
                                0.00     -0.00  12627.53

     corecor stress (kbar) -14311.04     -0.00      0.00
                               -0.00 -14311.04      0.00
                                0.00      0.00 -14311.04

     ewald   stress (kbar)  -4594.98      0.00     -0.00
                                0.00  -4594.98     -0.00
                               -0.00     -0.00  -4594.98

     hubbard stress (kbar)      0.00      0.00      0.00
                                0.00      0.00      0.00
                                0.00      0.00      0.00

     DFT-D   stress (kbar)      0.00      0.00      0.00
                                0.00      0.00      0.00
                                0.00      0.00      0.00

     XDM     stress (kbar)      0.00      0.00      0.00
                                0.00      0.00      0.00
                                0.00      0.00      0.00

     dft-nl  stress (kbar)      0.00      0.00      0.00
                                0.00      0.00      0.00
                                0.00      0.00      0.00

     TS-vdW  stress (kbar)      0.00      0.00      0.00
                                0.00      0.00      0.00
                                0.00      0.00      0.00



     BFGS Geometry Optimization
     Energy error            =      0.0E+00
     Gradient error          =      3.9E-06
     Cell gradient error     =      6.1E-05


     number of scf cycles    =   1
     number of bfgs steps    =   0

     enthalpy new            =  -16565.8313087334 Ry

     new trust radius        =       0.0354982084 bohr
     new conv_thr            =       0.0000000080 Ry

     new unit-cell volume =  13401.63872 a.u.^3 (  1985.91797 Ang^3 )
     density =      4.82174 g/cm^3

CELL_PARAMETERS (angstrom)
  12.569570409   0.000000000   0.000000000
   0.000000000  12.569570409   0.000000000
   0.000000000   0.000000000  12.569570409

ATOMIC_POSITIONS (crystal)
Cs            0.2499999997        0.2499999997        0.2499999997
Cs            0.2499999997        0.2499999997        0.7500000003
Cs            0.2499999997        0.7500000003        0.2499999997
Cs            0.2499999997        0.7500000003        0.7500000003
Cs            0.7500000003        0.2499999997        0.2499999997
Cs            0.7500000003        0.2499999997        0.7500000003
Cs            0.7500000003        0.7500000003        0.2499999997
Cs            0.7500000003        0.7500000003        0.7500000003
[...]
     atom   26 type  2   force =     0.00000000   -0.00021075    0.00000000
     atom   27 type  2   force =     0.00000000    0.00020855    0.00000000
     atom   28 type  2   force =     0.00000000    0.00021075    0.00000000
     atom   29 type  2   force =     0.00000000   -0.00021075    0.00000000
     atom   30 type  2   force =    -0.00000000   -0.00021116    0.00000000
     atom   31 type  2   force =     0.00000000    0.00021075    0.00000000
     atom   32 type  2   force =     0.00000000    0.00021116    0.00000000
     atom   33 type  2   force =    -0.00020855    0.00000000    0.00000000
     atom   34 type  2   force =    -0.00021075    0.00000000    0.00000000
     atom   35 type  2   force =    -0.00021075    0.00000000    0.00000000
     atom   36 type  2   force =    -0.00021116   -0.00000000    0.00000000
     atom   37 type  2   force =     0.00020855    0.00000000    0.00000000
     atom   38 type  2   force =     0.00021075    0.00000000    0.00000000
     atom   39 type  2   force =     0.00021075    0.00000000    0.00000000
     atom   40 type  2   force =     0.00021116    0.00000000    0.00000000
     The local contribution  to forces
     atom    1 type  1   force =     0.00004975    0.00004975    0.00004975
     atom    2 type  1   force =     0.00004975    0.00004975   -0.00004975
     atom    3 type  1   force =     0.00004975   -0.00004975    0.00004975
     atom    4 type  1   force =     0.00004975   -0.00004975   -0.00004975
     atom    5 type  1   force =    -0.00004975    0.00004975    0.00004975
     atom    6 type  1   force =    -0.00004975    0.00004975   -0.00004975
     atom    7 type  1   force =    -0.00004975   -0.00004975    0.00004975
     atom    8 type  1   force =    -0.00004975   -0.00004975   -0.00004975
     atom    9 type  3   force =     0.00000000    0.00000000    0.00000000
     atom   10 type  3   force =     0.00000000    0.00000000    0.00000000
     atom   11 type  3   force =     0.00000000    0.00000000    0.00000000
     atom   12 type  3   force =     0.00000000    0.00000000    0.00000000
     atom   13 type  3   force =     0.00000000    0.00000000    0.00000000
     atom   14 type  3   force =     0.00000000    0.00000000    0.00000000
     atom   15 type  3   force =     0.00000000    0.00000000    0.00000000
     atom   16 type  3   force =     0.00000000    0.00000000    0.00000000
     atom   17 type  2   force =    -0.00000000   -0.00000000    0.00020189
     atom   18 type  2   force =    -0.00000000   -0.00000000   -0.00020189
     atom   19 type  2   force =    -0.00000000    0.00000000    0.00020463
     atom   20 type  2   force =    -0.00000000    0.00000000   -0.00020463
     atom   21 type  2   force =    -0.00000000   -0.00000000    0.00020463
     atom   22 type  2   force =     0.00000000   -0.00000000   -0.00020463
     atom   23 type  2   force =     0.00000000    0.00000000    0.00020597
     atom   24 type  2   force =     0.00000000    0.00000000   -0.00020597
     atom   25 type  2   force =    -0.00000000    0.00020189   -0.00000000
     atom   26 type  2   force =    -0.00000000    0.00020463    0.00000000
     atom   27 type  2   force =    -0.00000000   -0.00020189   -0.00000000
     atom   28 type  2   force =    -0.00000000   -0.00020463    0.00000000
     atom   29 type  2   force =     0.00000000    0.00020463   -0.00000000
     atom   30 type  2   force =     0.00000000    0.00020597    0.00000000
     atom   31 type  2   force =     0.00000000   -0.00020463   -0.00000000
     atom   32 type  2   force =     0.00000000   -0.00020597    0.00000000
     atom   33 type  2   force =     0.00020189   -0.00000000   -0.00000000
     atom   34 type  2   force =     0.00020463   -0.00000000    0.00000000
     atom   35 type  2   force =     0.00020463   -0.00000000   -0.00000000
     atom   36 type  2   force =     0.00020597    0.00000000    0.00000000
     atom   37 type  2   force =    -0.00020189   -0.00000000   -0.00000000
     atom   38 type  2   force =    -0.00020463   -0.00000000    0.00000000
     atom   39 type  2   force =    -0.00020463    0.00000000   -0.00000000
     atom   40 type  2   force =    -0.00020597    0.00000000    0.00000000
     The core correction contribution to forces
     atom    1 type  1   force =     0.00000002    0.00000002    0.00000002
     atom    2 type  1   force =     0.00000002    0.00000002   -0.00000002
     atom    3 type  1   force =     0.00000002   -0.00000002    0.00000002
     atom    4 type  1   force =     0.00000002   -0.00000002   -0.00000002
     atom    5 type  1   force =    -0.00000002    0.00000002    0.00000002
     atom    6 type  1   force =    -0.00000002    0.00000002   -0.00000002
     atom    7 type  1   force =    -0.00000002   -0.00000002    0.00000002
     atom    8 type  1   force =    -0.00000002   -0.00000002   -0.00000002
     atom    9 type  3   force =     0.00000000    0.00000000    0.00000000
     atom   10 type  3   force =     0.00000000    0.00000000    0.00000000
     atom   11 type  3   force =     0.00000000    0.00000000    0.00000000
     atom   12 type  3   force =     0.00000000    0.00000000    0.00000000
     atom   13 type  3   force =     0.00000000    0.00000000    0.00000000
     atom   14 type  3   force =     0.00000000    0.00000000    0.00000000
     atom   15 type  3   force =     0.00000000    0.00000000    0.00000000
     atom   16 type  3   force =     0.00000000    0.00000000    0.00000000
     atom   17 type  2   force =     0.00000000    0.00000000    0.00000053
     atom   18 type  2   force =     0.00000000    0.00000000   -0.00000053
     atom   19 type  2   force =     0.00000000   -0.00000000    0.00000058
     atom   20 type  2   force =     0.00000000   -0.00000000   -0.00000058
     atom   21 type  2   force =    -0.00000000    0.00000000    0.00000058
     atom   22 type  2   force =    -0.00000000    0.00000000   -0.00000058
     atom   23 type  2   force =     0.00000000    0.00000000    0.00000062
     atom   24 type  2   force =    -0.00000000   -0.00000000   -0.00000062
     atom   25 type  2   force =     0.00000000    0.00000053    0.00000000
     atom   26 type  2   force =     0.00000000    0.00000058   -0.00000000
     atom   27 type  2   force =     0.00000000   -0.00000053    0.00000000
     atom   28 type  2   force =     0.00000000   -0.00000058   -0.00000000
     atom   29 type  2   force =    -0.00000000    0.00000058    0.00000000
     atom   30 type  2   force =     0.00000000    0.00000062    0.00000000
     atom   31 type  2   force =    -0.00000000   -0.00000058    0.00000000
     atom   32 type  2   force =     0.00000000   -0.00000062   -0.00000000
     atom   33 type  2   force =     0.00000053    0.00000000    0.00000000
     atom   34 type  2   force =     0.00000058    0.00000000   -0.00000000
     atom   35 type  2   force =     0.00000058   -0.00000000    0.00000000
     atom   36 type  2   force =     0.00000062    0.00000000    0.00000000
     atom   37 type  2   force =    -0.00000053    0.00000000    0.00000000
     atom   38 type  2   force =    -0.00000058    0.00000000   -0.00000000
     atom   39 type  2   force =    -0.00000058   -0.00000000    0.00000000
     atom   40 type  2   force =    -0.00000062    0.00000000   -0.00000000
     The Hubbard contrib.    to forces
     atom    1 type  1   force =     0.00000000    0.00000000    0.00000000
     atom    2 type  1   force =     0.00000000    0.00000000    0.00000000
     atom    3 type  1   force =     0.00000000    0.00000000    0.00000000
     atom    4 type  1   force =     0.00000000    0.00000000    0.00000000
     atom    5 type  1   force =     0.00000000    0.00000000    0.00000000
     atom    6 type  1   force =     0.00000000    0.00000000    0.00000000
     atom    7 type  1   force =     0.00000000    0.00000000    0.00000000
     atom    8 type  1   force =     0.00000000    0.00000000    0.00000000
     atom    9 type  3   force =     0.00000000    0.00000000    0.00000000
     atom   10 type  3   force =     0.00000000    0.00000000    0.00000000
     atom   11 type  3   force =     0.00000000    0.00000000    0.00000000
     atom   12 type  3   force =     0.00000000    0.00000000    0.00000000
     atom   13 type  3   force =     0.00000000    0.00000000    0.00000000
     atom   14 type  3   force =     0.00000000    0.00000000    0.00000000
     atom   15 type  3   force =     0.00000000    0.00000000    0.00000000
     atom   16 type  3   force =     0.00000000    0.00000000    0.00000000
     atom   17 type  2   force =     0.00000000    0.00000000    0.00000000
     atom   18 type  2   force =     0.00000000    0.00000000    0.00000000
     atom   19 type  2   force =     0.00000000    0.00000000    0.00000000
     atom   20 type  2   force =     0.00000000    0.00000000    0.00000000
     atom   21 type  2   force =     0.00000000    0.00000000    0.00000000
     atom   22 type  2   force =     0.00000000    0.00000000    0.00000000
     atom   23 type  2   force =     0.00000000    0.00000000    0.00000000
     atom   24 type  2   force =     0.00000000    0.00000000    0.00000000
     atom   25 type  2   force =     0.00000000    0.00000000    0.00000000
     atom   26 type  2   force =     0.00000000    0.00000000    0.00000000
     atom   27 type  2   force =     0.00000000    0.00000000    0.00000000
     atom   28 type  2   force =     0.00000000    0.00000000    0.00000000
     atom   29 type  2   force =     0.00000000    0.00000000    0.00000000
     atom   30 type  2   force =     0.00000000    0.00000000    0.00000000
     atom   31 type  2   force =     0.00000000    0.00000000    0.00000000
     atom   32 type  2   force =     0.00000000    0.00000000    0.00000000
     atom   33 type  2   force =     0.00000000    0.00000000    0.00000000
     atom   34 type  2   force =     0.00000000    0.00000000    0.00000000
     atom   35 type  2   force =     0.00000000    0.00000000    0.00000000
     atom   36 type  2   force =     0.00000000    0.00000000    0.00000000
     atom   37 type  2   force =     0.00000000    0.00000000    0.00000000
     atom   38 type  2   force =     0.00000000    0.00000000    0.00000000
     atom   39 type  2   force =     0.00000000    0.00000000    0.00000000
     atom   40 type  2   force =     0.00000000    0.00000000    0.00000000
     The SCF correction term to forces
     atom    1 type  1   force =    -0.00000018   -0.00000018   -0.00000018
     atom    2 type  1   force =    -0.00000018   -0.00000018    0.00000018
     atom    3 type  1   force =    -0.00000018    0.00000018   -0.00000018
     atom    4 type  1   force =    -0.00000018    0.00000018    0.00000018
     atom    5 type  1   force =     0.00000018   -0.00000018   -0.00000018
     atom    6 type  1   force =     0.00000018   -0.00000018    0.00000018
     atom    7 type  1   force =     0.00000018    0.00000018   -0.00000018
     atom    8 type  1   force =     0.00000018    0.00000018    0.00000018
     atom    9 type  3   force =     0.00000000   -0.00000000   -0.00000000
     atom   10 type  3   force =     0.00000000   -0.00000000   -0.00000000
     atom   11 type  3   force =     0.00000000   -0.00000000   -0.00000000
     atom   12 type  3   force =     0.00000000   -0.00000000   -0.00000000
     atom   13 type  3   force =     0.00000000   -0.00000000   -0.00000000
     atom   14 type  3   force =     0.00000000   -0.00000000   -0.00000000
     atom   15 type  3   force =    -0.00000000   -0.00000000   -0.00000000
     atom   16 type  3   force =     0.00000000   -0.00000000   -0.00000000
     atom   17 type  2   force =     0.00000000   -0.00000000    0.00000053
     atom   18 type  2   force =     0.00000000   -0.00000000   -0.00000053
     atom   19 type  2   force =    -0.00000000   -0.00000000   -0.00000014
     atom   20 type  2   force =    -0.00000000    0.00000000    0.00000014
     atom   21 type  2   force =    -0.00000000   -0.00000000   -0.00000014
     atom   22 type  2   force =    -0.00000000   -0.00000000    0.00000014
     atom   23 type  2   force =     0.00000000    0.00000000   -0.00000102
     atom   24 type  2   force =     0.00000000   -0.00000000    0.00000102
     atom   25 type  2   force =     0.00000000    0.00000053    0.00000000
     atom   26 type  2   force =    -0.00000000   -0.00000014    0.00000000
     atom   27 type  2   force =    -0.00000000   -0.00000053    0.00000000
     atom   28 type  2   force =    -0.00000000    0.00000014    0.00000000
     atom   29 type  2   force =     0.00000000   -0.00000014    0.00000000
     atom   30 type  2   force =     0.00000000   -0.00000102    0.00000000
     atom   31 type  2   force =    -0.00000000    0.00000014    0.00000000
     atom   32 type  2   force =     0.00000000    0.00000102    0.00000000
     atom   33 type  2   force =     0.00000053   -0.00000000    0.00000000
     atom   34 type  2   force =    -0.00000014   -0.00000000   -0.00000000
     atom   35 type  2   force =    -0.00000014   -0.00000000    0.00000000
     atom   36 type  2   force =    -0.00000102   -0.00000000    0.00000000
     atom   37 type  2   force =    -0.00000053   -0.00000000    0.00000000
     atom   38 type  2   force =     0.00000014   -0.00000000    0.00000000
     atom   39 type  2   force =     0.00000014   -0.00000000    0.00000000
     atom   40 type  2   force =     0.00000102   -0.00000000    0.00000000

     Total force =     0.000023     Total SCF correction =     0.000003
     SCF correction compared to forces is large: reduce conv_thr to get better values


     Computing stress (Cartesian axis) and pressure

          total   stress  (Ry/bohr**3)                   (kbar)     P=        0.34
   0.00000230   0.00000000   0.00000000            0.34        0.00        0.00
   0.00000000   0.00000230   0.00000000            0.00        0.34        0.00
   0.00000000   0.00000000   0.00000230            0.00        0.00        0.34

     kinetic stress (kbar)   3449.98      0.00      0.00
                                0.00   3449.98      0.00
                                0.00      0.00   3449.98

     local   stress (kbar)   -371.52      0.00     -0.00
                                0.00   -371.52     -0.00
                               -0.00     -0.00   -371.52

     nonloc. stress (kbar)    896.49      0.00      0.00
                                0.00    896.49      0.00
                                0.00      0.00    896.49

     hartree stress (kbar)   1920.44      0.00      0.00
                                0.00   1920.44      0.00
                                0.00      0.00   1920.44

     exc-cor stress (kbar)  12007.48     -0.00     -0.00
                               -0.00  12007.48     -0.00
                               -0.00     -0.00  12007.48

     corecor stress (kbar) -13606.50     -0.00     -0.00
                               -0.00 -13606.50      0.00
                               -0.00      0.00 -13606.50

     ewald   stress (kbar)  -4296.03      0.00      0.00
                                0.00  -4296.03     -0.00
                                0.00     -0.00  -4296.03

     hubbard stress (kbar)      0.00      0.00      0.00
                                0.00      0.00      0.00
                                0.00      0.00      0.00

     DFT-D   stress (kbar)      0.00      0.00      0.00
                                0.00      0.00      0.00
                                0.00      0.00      0.00

     XDM     stress (kbar)      0.00      0.00      0.00
                                0.00      0.00      0.00
                                0.00      0.00      0.00

     dft-nl  stress (kbar)      0.00      0.00      0.00
                                0.00      0.00      0.00
                                0.00      0.00      0.00

     TS-vdW  stress (kbar)      0.00      0.00      0.00
                                0.00      0.00      0.00
                                0.00      0.00      0.00



     Writing output data file ../out/aiida.save/

     init_run     :    543.47s CPU    548.31s WALL (       2 calls)
     electrons    : 111657.82s CPU 112546.58s WALL (       8 calls)
     update_pot   :    575.22s CPU    576.47s WALL (       6 calls)
     forces       :   1654.92s CPU   1671.78s WALL (       8 calls)
     stress       :   2585.20s CPU   2617.46s WALL (       8 calls)

     Called by init_run:
     wfcinit      :    363.99s CPU    365.56s WALL (       2 calls)
     wfcinit:atom :      0.50s CPU      0.75s WALL (       8 calls)
     wfcinit:wfcr :    360.31s CPU    361.33s WALL (       8 calls)
     potinit      :     46.81s CPU     47.07s WALL (       2 calls)
     hinit0       :    105.80s CPU    105.91s WALL (       2 calls)

     Called by electrons:
     c_bands      :  96385.71s CPU  96740.78s WALL (     190 calls)
     sum_band     :  12475.18s CPU  12779.08s WALL (     190 calls)
     v_of_rho     :    237.10s CPU    253.45s WALL (     197 calls)
     v_h          :     20.66s CPU     21.37s WALL (     197 calls)
     v_xc         :    233.84s CPU    250.86s WALL (     213 calls)
     newd         :   2314.83s CPU   2533.19s WALL (     197 calls)
     PAW_pot      :    277.70s CPU    278.07s WALL (     203 calls)
     mix_rho      :     62.86s CPU     65.57s WALL (     190 calls)

     Called by c_bands:
     init_us_2    :    141.89s CPU    147.47s WALL (    1616 calls)
     cegterg      :  95876.98s CPU  96221.44s WALL (     765 calls)

     Called by sum_band:
     sum_band:wei :      0.12s CPU      0.12s WALL (     190 calls)
     sum_band:loo :   8510.43s CPU   8542.97s WALL (     190 calls)
     sum_band:buf :     38.00s CPU     38.03s WALL (     760 calls)
     sum_band:ini :     67.19s CPU     67.25s WALL (     760 calls)
     sum_band:cal :   6195.53s CPU   6201.20s WALL (     784 calls)
     sum_band:bec :      2.26s CPU      2.27s WALL (     784 calls)
     addusdens    :   3927.35s CPU   4195.61s WALL (     190 calls)
     addusd:skk   :     23.15s CPU     40.18s WALL (     570 calls)
     addusd:dgemm :   2483.44s CPU   2678.48s WALL (     570 calls)
     addusd:qvan2 :   1379.04s CPU   1389.55s WALL (     570 calls)

     Called by *egterg:
     cdiaghg      :    596.38s CPU    596.72s WALL (    3447 calls)
     cegterg:over :  10605.33s CPU  10611.08s WALL (    2715 calls)
     cegterg:upda :   6952.10s CPU   6974.74s WALL (    2715 calls)
     cegterg:last :  15793.14s CPU  15800.45s WALL (    1523 calls)
     h_psi        :  41864.68s CPU  42082.13s WALL (    3488 calls)
     s_psi        :  15405.90s CPU  15416.49s WALL (    3488 calls)
     g_psi        :     91.90s CPU     91.94s WALL (    2715 calls)

     Called by h_psi:
     h_psi:calbec :  15176.60s CPU  15187.11s WALL (    3488 calls)
     vloc_psi     :  11230.35s CPU  11395.99s WALL (    3488 calls)
     add_vuspsi   :  15411.41s CPU  15422.64s WALL (    3488 calls)

     General routines
     calbec       :  22566.33s CPU  22582.99s WALL (    4432 calls)
     fft          :    233.01s CPU    244.15s WALL (    2752 calls)
     ffts         :     10.76s CPU     11.14s WALL (     387 calls)
     fftw         :  10697.74s CPU  10841.61s WALL (  980416 calls)
     interpolate  :     25.30s CPU     26.14s WALL (     197 calls)

     Parallel routines
     fft_scatt_xy :   2536.66s CPU   2560.21s WALL (  983555 calls)
     fft_scatt_yz :   1551.25s CPU   1629.29s WALL (  983555 calls)

     PAW routines
     PAW_pot      :    277.70s CPU    278.07s WALL (     203 calls)
     PAW_symme    :      0.83s CPU      0.84s WALL (     393 calls)

     PWSCF        :   1d 8h35m CPU   1d 8h51m WALL


   This run was terminated on:   0: 7:42   1Apr2024            

=------------------------------------------------------------------------------=
   JOB DONE.
=------------------------------------------------------------------------------=
