[Molden Format]
[N_ATOMS]
                     5
[ATOMS] (AU)
H1          1      1           0.00000000      0.00000000      0.00000000
C1          2      6           0.00000000      0.00000000      2.07302956
O1          3      8           2.36933580      0.00000000      2.98253236
H2          4      1           2.21883002      0.00000000      4.81316966
O2          5      8          -1.88089831      0.00000000      3.34649345
[CHARGE] (MULLIKEN)
  7.043927315022169E-002
  0.268175169600766     
 -0.297877936705367     
  0.221698267414112     
 -0.262434773459944     
[GTO] (AU)
   1
   s   3
  0.342525091E+01  0.154328971E+00
  0.623913730E+00  0.535328142E+00
  0.168855400E+00  0.444634542E+00
 
   2
   s   3
  0.716168370E+02  0.154328970E+00
  0.130450960E+02  0.535328140E+00
  0.353051220E+01  0.444634540E+00
   s   3
  0.294124940E+01 -0.999672301E-01
  0.683483100E+00  0.399512830E+00
  0.222289900E+00  0.700115471E+00
   p   3
  0.294124940E+01  0.155916272E+00
  0.683483100E+00  0.607683728E+00
  0.222289900E+00  0.391957395E+00
 
   3
   s   3
  0.130709320E+03  0.154328969E+00
  0.238088610E+02  0.535328136E+00
  0.644360830E+01  0.444634536E+00
   s   3
  0.503315130E+01 -0.999672287E-01
  0.116959610E+01  0.399512825E+00
  0.380389000E+00  0.700115461E+00
   p   3
  0.503315130E+01  0.155916268E+00
  0.116959610E+01  0.607683714E+00
  0.380389000E+00  0.391957386E+00
 
   4
   s   3
  0.342525091E+01  0.154328971E+00
  0.623913730E+00  0.535328142E+00
  0.168855400E+00  0.444634542E+00
 
   5
   s   3
  0.130709320E+03  0.154328969E+00
  0.238088610E+02  0.535328136E+00
  0.644360830E+01  0.444634536E+00
   s   3
  0.503315130E+01 -0.999672287E-01
  0.116959610E+01  0.399512825E+00
  0.380389000E+00  0.700115461E+00
   p   3
  0.503315130E+01  0.155916268E+00
  0.116959610E+01  0.607683714E+00
  0.380389000E+00  0.391957386E+00
 
[MO]
Sym=     1a  
Ene=   -20.3240
Spin= Alpha
Occup=    1.00000
   1         0.00027905
   2         0.00049971
   3        -0.00491007
   4        -0.00452259
   5        -0.00000000
   6        -0.00168190
   7         0.99408821
   8         0.02676446
   9        -0.00393739
  10        -0.00000000
  11         0.00197020
  12        -0.00580977
  13         0.00077583
  14         0.00023101
  15         0.00041701
  16         0.00000000
  17         0.00046654
Sym=     1a  
Ene=   -20.3240
Spin= Beta
Occup=    1.00000
   1         0.00027905
   2         0.00049971
   3        -0.00491007
   4        -0.00452259
   5        -0.00000000
   6        -0.00168190
   7         0.99408821
   8         0.02676446
   9        -0.00393739
  10        -0.00000000
  11         0.00197020
  12        -0.00580977
  13         0.00077583
  14         0.00023101
  15         0.00041701
  16         0.00000000
  17         0.00046654
Sym=     2a  
Ene=   -20.2740
Spin= Alpha
Occup=    1.00000
   1         0.00016382
   2         0.00052374
   3        -0.00754098
   4         0.00542551
   5        -0.00000000
   6        -0.00377744
   7        -0.00084972
   8         0.00026334
   9        -0.00030178
  10        -0.00000000
  11         0.00045028
  12        -0.00010333
  13         0.99421640
  14         0.02646091
  15         0.00495882
  16        -0.00000000
  17        -0.00329536
Sym=     2a  
Ene=   -20.2740
Spin= Beta
Occup=    1.00000
   1         0.00016382
   2         0.00052374
   3        -0.00754098
   4         0.00542551
   5        -0.00000000
   6        -0.00377744
   7        -0.00084972
   8         0.00026334
   9        -0.00030178
  10        -0.00000000
  11         0.00045028
  12        -0.00010333
  13         0.99421640
  14         0.02646091
  15         0.00495882
  16        -0.00000000
  17        -0.00329536
Sym=     3a  
Ene=   -11.1840
Spin= Alpha
Occup=    1.00000
   1        -0.00653771
   2         0.99272570
   3         0.03181652
   4        -0.00017652
   5        -0.00000000
   6         0.00026921
   7         0.00030762
   8        -0.00441154
   9         0.00225115
  10         0.00000000
  11         0.00122936
  12        -0.00152481
  13         0.00007436
  14        -0.00557490
  15        -0.00119648
  16        -0.00000000
  17         0.00070632
Sym=     3a  
Ene=   -11.1840
Spin= Beta
Occup=    1.00000
   1        -0.00653771
   2         0.99272570
   3         0.03181652
   4        -0.00017652
   5        -0.00000000
   6         0.00026921
   7         0.00030762
   8        -0.00441154
   9         0.00225115
  10         0.00000000
  11         0.00122936
  12        -0.00152481
  13         0.00007436
  14        -0.00557490
  15        -0.00119648
  16        -0.00000000
  17         0.00070632
Sym=     4a  
Ene=    -1.4004
Spin= Alpha
Occup=    1.00000
   1         0.03246183
   2        -0.13229998
   3         0.29920607
   4        -0.00228617
   5         0.00000000
   6         0.09175687
   7        -0.16343196
   8         0.57477831
   9        -0.11164474
  10         0.00000000
  11         0.03258416
  12         0.08794323
  13        -0.13333339
  14         0.45377261
  15         0.10981522
  16         0.00000000
  17        -0.05967470
Sym=     4a  
Ene=    -1.4004
Spin= Beta
Occup=    1.00000
   1         0.03246183
   2        -0.13229998
   3         0.29920607
   4        -0.00228617
   5         0.00000000
   6         0.09175687
   7        -0.16343196
   8         0.57477831
   9        -0.11164474
  10         0.00000000
  11         0.03258416
  12         0.08794323
  13        -0.13333339
  14         0.45377261
  15         0.10981522
  16         0.00000000
  17        -0.05967470
Sym=     5a  
Ene=    -1.2954
Spin= Alpha
Occup=    1.00000
   1         0.01040033
   2        -0.04303053
   3         0.09523716
   4        -0.20931933
   5        -0.00000000
   6         0.05000550
   7         0.15941639
   8        -0.57647005
   9         0.05767181
  10         0.00000000
  11        -0.04284407
  12        -0.10225475
  13        -0.17438463
  14         0.61077732
  15         0.09893452
  16        -0.00000000
  17        -0.07452317
Sym=     5a  
Ene=    -1.2954
Spin= Beta
Occup=    1.00000
   1         0.01040033
   2        -0.04303053
   3         0.09523716
   4        -0.20931933
   5        -0.00000000
   6         0.05000550
   7         0.15941639
   8        -0.57647005
   9         0.05767181
  10         0.00000000
  11        -0.04284407
  12        -0.10225475
  13        -0.17438463
  14         0.61077732
  15         0.09893452
  16        -0.00000000
  17        -0.07452317
Sym=     6a  
Ene=    -0.8100
Spin= Alpha
Occup=    1.00000
   1        -0.28185707
   2         0.15721155
   3        -0.50899198
   4        -0.13160293
   5         0.00000000
   6         0.22493646
   7        -0.03792679
   8         0.16373977
   9         0.17793924
  10         0.00000000
  11         0.31303272
  12         0.25805227
  13        -0.06925174
  14         0.29325845
  15        -0.05319989
  16        -0.00000000
  17         0.11509622
Sym=     6a  
Ene=    -0.8100
Spin= Beta
Occup=    1.00000
   1        -0.28185707
   2         0.15721155
   3        -0.50899198
   4        -0.13160293
   5         0.00000000
   6         0.22493646
   7        -0.03792679
   8         0.16373977
   9         0.17793924
  10         0.00000000
  11         0.31303272
  12         0.25805227
  13        -0.06925174
  14         0.29325845
  15        -0.05319989
  16        -0.00000000
  17         0.11509622
Sym=     7a  
Ene=    -0.6395
Spin= Alpha
Occup=    1.00000
   1        -0.26815402
   2        -0.01045630
   3         0.05410063
   4         0.28525215
   5        -0.00000000
   6         0.43134139
   7         0.03648454
   8        -0.18057625
   9        -0.40606211
  10        -0.00000000
  11        -0.19200273
  12        -0.20674618
  13         0.00456124
  14        -0.02174106
  15         0.22431194
  16        -0.00000000
  17         0.28898000
Sym=     7a  
Ene=    -0.6395
Spin= Beta
Occup=    1.00000
   1        -0.26815402
   2        -0.01045630
   3         0.05410063
   4         0.28525215
   5        -0.00000000
   6         0.43134139
   7         0.03648454
   8        -0.18057625
   9        -0.40606211
  10        -0.00000000
  11        -0.19200273
  12        -0.20674618
  13         0.00456124
  14        -0.02174106
  15         0.22431194
  16        -0.00000000
  17         0.28898000
Sym=     8a  
Ene=    -0.5996
Spin= Alpha
Occup=    1.00000
   1         0.02857885
   2        -0.07850733
   3         0.25742058
   4        -0.23242613
   5         0.00000000
   6         0.15752871
   7         0.06345407
   8        -0.30853750
   9        -0.18477802
  10         0.00000000
  11         0.40725784
  12         0.25964982
  13         0.10844653
  14        -0.54879534
  15         0.42549370
  16        -0.00000000
  17        -0.23295351
Sym=     8a  
Ene=    -0.5996
Spin= Beta
Occup=    1.00000
   1         0.02857885
   2        -0.07850733
   3         0.25742058
   4        -0.23242613
   5         0.00000000
   6         0.15752871
   7         0.06345407
   8        -0.30853750
   9        -0.18477802
  10         0.00000000
  11         0.40725784
  12         0.25964982
  13         0.10844653
  14        -0.54879534
  15         0.42549370
  16        -0.00000000
  17        -0.23295351
Sym=     9a  
Ene=    -0.5494
Spin= Alpha
Occup=    1.00000
   1        -0.00000000
   2         0.00000000
   3         0.00000000
   4         0.00000000
   5         0.51943439
   6         0.00000000
   7         0.00000000
   8        -0.00000000
   9        -0.00000000
  10         0.62500632
  11        -0.00000000
  12        -0.00000000
  13         0.00000000
  14         0.00000000
  15        -0.00000000
  16         0.38320680
  17         0.00000000
Sym=     9a  
Ene=    -0.5494
Spin= Beta
Occup=    1.00000
   1        -0.00000000
   2         0.00000000
   3         0.00000000
   4         0.00000000
   5         0.51943439
   6         0.00000000
   7         0.00000000
   8        -0.00000000
   9        -0.00000000
  10         0.62500632
  11        -0.00000000
  12        -0.00000000
  13         0.00000000
  14         0.00000000
  15        -0.00000000
  16         0.38320680
  17         0.00000000
Sym=    10a  
Ene=    -0.4745
Spin= Alpha
Occup=    1.00000
   1         0.24450048
   2        -0.00252561
   3         0.01360651
   4         0.24962887
   5        -0.00000000
   6        -0.19318472
   7         0.07702320
   8        -0.40629861
   9        -0.43276756
  10         0.00000000
  11         0.39614977
  12         0.28655586
  13        -0.04492913
  14         0.25366678
  15        -0.34152394
  16        -0.00000000
  17         0.33724029
Sym=    10a  
Ene=    -0.4745
Spin= Beta
Occup=    1.00000
   1         0.24450048
   2        -0.00252561
   3         0.01360651
   4         0.24962887
   5        -0.00000000
   6        -0.19318472
   7         0.07702320
   8        -0.40629861
   9        -0.43276756
  10         0.00000000
  11         0.39614977
  12         0.28655586
  13        -0.04492913
  14         0.25366678
  15        -0.34152394
  16        -0.00000000
  17         0.33724029
Sym=    11a  
Ene=    -0.3649
Spin= Alpha
Occup=    1.00000
   1         0.00000000
   2         0.00000000
   3         0.00000000
   4        -0.00000000
   5         0.29064782
   6        -0.00000000
   7        -0.00000000
   8        -0.00000000
   9         0.00000000
  10        -0.72391971
  11         0.00000000
  12         0.00000000
  13        -0.00000000
  14         0.00000000
  15         0.00000000
  16         0.62209484
  17         0.00000000
Sym=    11a  
Ene=    -0.3649
Spin= Beta
Occup=    1.00000
   1         0.00000000
   2         0.00000000
   3         0.00000000
   4        -0.00000000
   5         0.29064782
   6        -0.00000000
   7        -0.00000000
   8        -0.00000000
   9         0.00000000
  10        -0.72391971
  11         0.00000000
  12         0.00000000
  13        -0.00000000
  14         0.00000000
  15         0.00000000
  16         0.62209484
  17         0.00000000
Sym=    12a  
Ene=    -0.3609
Spin= Alpha
Occup=    1.00000
   1         0.30258788
   2        -0.00730299
   3         0.01064352
   4        -0.02809499
   5         0.00000000
   6        -0.08700003
   7         0.00317982
   8        -0.02125774
   9         0.39980610
  10         0.00000000
  11        -0.00266588
  12         0.05888813
  13         0.00332981
  14        -0.01364944
  15         0.50868391
  16        -0.00000000
  17         0.71817625
Sym=    12a  
Ene=    -0.3609
Spin= Beta
Occup=    1.00000
   1         0.30258788
   2        -0.00730299
   3         0.01064352
   4        -0.02809499
   5         0.00000000
   6        -0.08700003
   7         0.00317982
   8        -0.02125774
   9         0.39980610
  10         0.00000000
  11        -0.00266588
  12         0.05888813
  13         0.00332981
  14        -0.01364944
  15         0.50868391
  16        -0.00000000
  17         0.71817625
Sym=    13a  
Ene=     0.3074
Spin= Alpha
Occup=    0.00000
   1         0.00000000
   2        -0.00000000
   3         0.00000000
   4         0.00000000
   5        -0.85007032
   6         0.00000000
   7         0.00000000
   8        -0.00000000
   9         0.00000000
  10         0.33532399
  11         0.00000000
  12         0.00000000
  13        -0.00000000
  14         0.00000000
  15        -0.00000000
  16         0.71800175
  17        -0.00000000
Sym=    13a  
Ene=     0.3074
Spin= Beta
Occup=    0.00000
   1         0.00000000
   2        -0.00000000
   3         0.00000000
   4         0.00000000
   5        -0.85007032
   6         0.00000000
   7         0.00000000
   8        -0.00000000
   9         0.00000000
  10         0.33532399
  11         0.00000000
  12         0.00000000
  13        -0.00000000
  14         0.00000000
  15        -0.00000000
  16         0.71800175
  17        -0.00000000
Sym=    14a  
Ene=     0.5678
Spin= Alpha
Occup=    0.00000
   1        -0.56406860
   2        -0.10425243
   3         0.60509086
   4         0.30144626
   5         0.00000000
   6        -0.17859767
   7         0.11909814
   8        -0.78117429
   9         0.35380432
  10        -0.00000000
  11        -0.54924270
  12         0.96532811
  13         0.01039180
  14        -0.04008975
  15        -0.08160134
  16        -0.00000000
  17        -0.02889374
Sym=    14a  
Ene=     0.5678
Spin= Beta
Occup=    0.00000
   1        -0.56406860
   2        -0.10425243
   3         0.60509086
   4         0.30144626
   5         0.00000000
   6        -0.17859767
   7         0.11909814
   8        -0.78117429
   9         0.35380432
  10        -0.00000000
  11        -0.54924270
  12         0.96532811
  13         0.01039180
  14        -0.04008975
  15        -0.08160134
  16        -0.00000000
  17        -0.02889374
Sym=    15a  
Ene=     0.6755
Spin= Alpha
Occup=    0.00000
   1        -0.93090191
   2        -0.18081548
   3         1.13321592
   4        -0.02700343
   5        -0.00000000
   6        -0.39897976
   7        -0.01055570
   8         0.08951280
   9         0.25873216
  10         0.00000000
  11         0.57785884
  12        -0.57210120
  13         0.03976557
  14        -0.25862434
  15        -0.22798591
  16         0.00000000
  17         0.29685546
Sym=    15a  
Ene=     0.6755
Spin= Beta
Occup=    0.00000
   1        -0.93090191
   2        -0.18081548
   3         1.13321592
   4        -0.02700343
   5        -0.00000000
   6        -0.39897976
   7        -0.01055570
   8         0.08951280
   9         0.25873216
  10         0.00000000
  11         0.57785884
  12        -0.57210120
  13         0.03976557
  14        -0.25862434
  15        -0.22798591
  16         0.00000000
  17         0.29685546
Sym=    16a  
Ene=     0.7308
Spin= Alpha
Occup=    0.00000
   1         0.56098625
   2        -0.06103010
   3         0.32087685
   4         0.63598313
   5         0.00000000
   6         0.89834058
   7         0.06467693
   8        -0.42857399
   9         0.67757306
  10        -0.00000000
  11         0.31669265
  12        -0.21848750
  13         0.01851056
  14        -0.12468831
  15        -0.31882848
  16        -0.00000000
  17        -0.20244874
Sym=    16a  
Ene=     0.7308
Spin= Beta
Occup=    0.00000
   1         0.56098625
   2        -0.06103010
   3         0.32087685
   4         0.63598313
   5         0.00000000
   6         0.89834058
   7         0.06467693
   8        -0.42857399
   9         0.67757306
  10        -0.00000000
  11         0.31669265
  12        -0.21848750
  13         0.01851056
  14        -0.12468831
  15        -0.31882848
  16        -0.00000000
  17        -0.20244874
Sym=    17a  
Ene=     0.9745
Spin= Alpha
Occup=    0.00000
   1        -0.22302415
   2         0.06838273
   3        -0.50925060
   4         1.04325261
   5         0.00000000
   6        -0.66537312
   7         0.01465591
   8        -0.10794886
   9         0.11119138
  10        -0.00000000
  11         0.34520184
  12        -0.13841335
  13        -0.11243620
  14         0.86257222
  15         0.73366381
  16        -0.00000000
  17        -0.51447246
Sym=    17a  
Ene=     0.9745
Spin= Beta
Occup=    0.00000
   1        -0.22302415
   2         0.06838273
   3        -0.50925060
   4         1.04325261
   5         0.00000000
   6        -0.66537312
   7         0.01465591
   8        -0.10794886
   9         0.11119138
  10        -0.00000000
  11         0.34520184
  12        -0.13841335
  13        -0.11243620
  14         0.86257222
  15         0.73366381
  16        -0.00000000
  17        -0.51447246
