### Running on host: fes33

     Program PWSCF v.6.7MaX starts on  1Apr2024 at 21:41:43 

     This program is part of the open-source Quantum ESPRESSO suite
     for quantum simulation of materials; please cite
         "P. Giannozzi et al., J. Phys.:Condens. Matter 21 395502 (2009);
         "P. Giannozzi et al., J. Phys.:Condens. Matter 29 465901 (2017);
          URL http://www.quantum-espresso.org", 
     in publications or presentations arising from this work. More details at
     http://www.quantum-espresso.org/quote

     Parallel version (MPI), running on     1 processors

     MPI processes distributed on     1 nodes
     Reading input from pwscf_ecutwfc-36.in

     Current dimensions of program PWSCF are:
     Max number of different atomic species (ntypx) = 10
     Max number of k-points (npk) =  40000
     Max angular momentum in pseudopotentials (lmaxx) =  3
     file Pb.pbe-dn-kjpaw_psl.0.2.2.UPF: wavefunction(s)  6S renormalized

     Subspace diagonalization in iterative solution of the eigenvalue problem:
     a serial algorithm will be used

     Found symmetry operation: I + (  0.0000  0.0000  0.5000)
     This is a supercell, fractional translations are disabled
     Message from routine setup:
     using ibrav=0 with symmetry is DISCOURAGED, use correct ibrav instead

     G-vector sticks info
     --------------------
     sticks:   dense  smooth     PW     G-vecs:    dense   smooth      PW
     Sum       14817    6657   1757              1356433   409085   55179



     bravais-lattice index     =            0
     lattice parameter (alat)  =      24.1188  a.u.
     unit-cell volume          =   14030.3801 (a.u.)^3
     number of atoms/cell      =           40
     number of atomic types    =            3
     number of electrons       =       352.00
     number of Kohn-Sham states=          211
     kinetic-energy cutoff     =      36.0000  Ry
     charge density cutoff     =     320.0000  Ry
     scf convergence threshold =      8.0E-09
     mixing beta               =       0.4000
     number of iterations used =            8  plain     mixing
     Exchange-correlation= SLA  PW   PBX  PBC
                           (   1   4   3   4   0   0   0)

     celldm(1)=  24.118843  celldm(2)=   0.000000  celldm(3)=   0.000000
     celldm(4)=   0.000000  celldm(5)=   0.000000  celldm(6)=   0.000000

     crystal axes: (cart. coord. in units of alat)
               a(1) = (   1.000000   0.000000   0.000000 )  
               a(2) = (   0.000000   1.000000   0.000000 )  
               a(3) = (   0.000000   0.000000   1.000000 )  

     reciprocal axes: (cart. coord. in units 2 pi/alat)
               b(1) = (  1.000000  0.000000  0.000000 )  
               b(2) = (  0.000000  1.000000  0.000000 )  
               b(3) = (  0.000000  0.000000  1.000000 )  


     PseudoPot. # 1 for Cs read from file:
     ../../pseudo/Cs_pbe_v1.uspp.F.UPF
     MD5 check sum: 3476d69cb178dfad3ffaa59df4e07ca4
     Pseudo is Ultrasoft + core correction, Zval =  9.0
     Generated by new atomic code, or converted to UPF format
     Using radial grid of  905 points,  6 beta functions with: 
                l(1) =   0
                l(2) =   0
                l(3) =   1
                l(4) =   1
                l(5) =   2
                l(6) =   2
     Q(r) pseudized with  6 coefficients,  rinner =    1.500   1.500   1.500
                                                       1.500   1.500

     PseudoPot. # 2 for I  read from file:
     ../../pseudo/I.pbe-n-kjpaw_psl.0.2.UPF
     MD5 check sum: d4ef18d9c8f18dc85e5843bca1e50dc0
     Pseudo is Projector augmented-wave + core cor, Zval =  7.0
     Generated using "atomic" code by A. Dal Corso  v.5.0.99 svn rev. 10869
     Shape of augmentation charge: PSQ
     Using radial grid of 1247 points,  4 beta functions with: 
                l(1) =   0
                l(2) =   0
                l(3) =   1
                l(4) =   1
     Q(r) pseudized with 0 coefficients 


     PseudoPot. # 3 for Pb read from file:
     ../../pseudo/Pb.pbe-dn-kjpaw_psl.0.2.2.UPF
     MD5 check sum: 9d431e6316058b74ade52399a6cf67da
     Pseudo is Projector augmented-wave + core cor, Zval = 14.0
     Generated using "atomic" code by A. Dal Corso  v.5.0.99 svn rev. 10869
     Shape of augmentation charge: PSQ
     Using radial grid of 1281 points,  6 beta functions with: 
                l(1) =   0
                l(2) =   0
                l(3) =   1
                l(4) =   1
                l(5) =   2
                l(6) =   2
     Q(r) pseudized with 0 coefficients 


     atomic species   valence    mass     pseudopotential
        Cs             9.00   132.90545     Cs( 1.00)
        I              7.00   126.90447     I ( 1.00)
        Pb            14.00   207.20000     Pb( 1.00)

     48 Sym. Ops., with inversion, found


                                    s                        frac. trans.

      isym =  1     identity                                     

 cryst.   s( 1) = (     1          0          0      )
                  (     0          1          0      )
                  (     0          0          1      )

 cart.    s( 1) = (  1.0000000  0.0000000  0.0000000 )
                  (  0.0000000  1.0000000  0.0000000 )
                  (  0.0000000  0.0000000  1.0000000 )


      isym =  2     180 deg rotation - cart. axis [0,0,1]        

 cryst.   s( 2) = (    -1          0          0      )
                  (     0         -1          0      )
                  (     0          0          1      )

 cart.    s( 2) = ( -1.0000000  0.0000000  0.0000000 )
                  (  0.0000000 -1.0000000  0.0000000 )
                  (  0.0000000  0.0000000  1.0000000 )


      isym =  3     180 deg rotation - cart. axis [0,1,0]        

 cryst.   s( 3) = (    -1          0          0      )
                  (     0          1          0      )
                  (     0          0         -1      )

 cart.    s( 3) = ( -1.0000000  0.0000000  0.0000000 )
                  (  0.0000000  1.0000000  0.0000000 )
                  (  0.0000000  0.0000000 -1.0000000 )


      isym =  4     180 deg rotation - cart. axis [1,0,0]        

 cryst.   s( 4) = (     1          0          0      )
                  (     0         -1          0      )
                  (     0          0         -1      )

 cart.    s( 4) = (  1.0000000  0.0000000  0.0000000 )
                  (  0.0000000 -1.0000000  0.0000000 )
                  (  0.0000000  0.0000000 -1.0000000 )


      isym =  5     180 deg rotation - cart. axis [1,1,0]        

 cryst.   s( 5) = (     0          1          0      )
                  (     1          0          0      )
                  (     0          0         -1      )

 cart.    s( 5) = (  0.0000000  1.0000000  0.0000000 )
                  (  1.0000000  0.0000000  0.0000000 )
                  (  0.0000000  0.0000000 -1.0000000 )


      isym =  6     180 deg rotation - cart. axis [1,-1,0]       

 cryst.   s( 6) = (     0         -1          0      )
                  (    -1          0          0      )
                  (     0          0         -1      )

 cart.    s( 6) = (  0.0000000 -1.0000000  0.0000000 )
                  ( -1.0000000  0.0000000  0.0000000 )
                  (  0.0000000  0.0000000 -1.0000000 )


      isym =  7      90 deg rotation - cart. axis [0,0,-1]       

 cryst.   s( 7) = (     0         -1          0      )
                  (     1          0          0      )
                  (     0          0          1      )

 cart.    s( 7) = (  0.0000000  1.0000000  0.0000000 )
                  ( -1.0000000  0.0000000  0.0000000 )
                  (  0.0000000  0.0000000  1.0000000 )


      isym =  8      90 deg rotation - cart. axis [0,0,1]        

 cryst.   s( 8) = (     0          1          0      )
                  (    -1          0          0      )
                  (     0          0          1      )

 cart.    s( 8) = (  0.0000000 -1.0000000  0.0000000 )
                  (  1.0000000  0.0000000  0.0000000 )
                  (  0.0000000  0.0000000  1.0000000 )


      isym =  9     180 deg rotation - cart. axis [1,0,1]        

 cryst.   s( 9) = (     0          0          1      )
                  (     0         -1          0      )
                  (     1          0          0      )

 cart.    s( 9) = (  0.0000000  0.0000000  1.0000000 )
                  (  0.0000000 -1.0000000  0.0000000 )
                  (  1.0000000  0.0000000  0.0000000 )


      isym = 10     180 deg rotation - cart. axis [-1,0,1]       

 cryst.   s(10) = (     0          0         -1      )
                  (     0         -1          0      )
                  (    -1          0          0      )

 cart.    s(10) = (  0.0000000  0.0000000 -1.0000000 )
                  (  0.0000000 -1.0000000  0.0000000 )
                  ( -1.0000000  0.0000000  0.0000000 )


      isym = 11      90 deg rotation - cart. axis [0,1,0]        

 cryst.   s(11) = (     0          0         -1      )
                  (     0          1          0      )
                  (     1          0          0      )

 cart.    s(11) = (  0.0000000  0.0000000  1.0000000 )
                  (  0.0000000  1.0000000  0.0000000 )
                  ( -1.0000000  0.0000000  0.0000000 )


      isym = 12      90 deg rotation - cart. axis [0,-1,0]       

 cryst.   s(12) = (     0          0          1      )
                  (     0          1          0      )
                  (    -1          0          0      )

 cart.    s(12) = (  0.0000000  0.0000000 -1.0000000 )
                  (  0.0000000  1.0000000  0.0000000 )
                  (  1.0000000  0.0000000  0.0000000 )


      isym = 13     180 deg rotation - cart. axis [0,1,1]        

 cryst.   s(13) = (    -1          0          0      )
                  (     0          0          1      )
                  (     0          1          0      )

 cart.    s(13) = ( -1.0000000  0.0000000  0.0000000 )
                  (  0.0000000  0.0000000  1.0000000 )
                  (  0.0000000  1.0000000  0.0000000 )


      isym = 14     180 deg rotation - cart. axis [0,1,-1]       

 cryst.   s(14) = (    -1          0          0      )
                  (     0          0         -1      )
                  (     0         -1          0      )

 cart.    s(14) = ( -1.0000000  0.0000000  0.0000000 )
                  (  0.0000000  0.0000000 -1.0000000 )
                  (  0.0000000 -1.0000000  0.0000000 )


      isym = 15      90 deg rotation - cart. axis [-1,0,0]       

 cryst.   s(15) = (     1          0          0      )
                  (     0          0         -1      )
                  (     0          1          0      )

 cart.    s(15) = (  1.0000000  0.0000000  0.0000000 )
                  (  0.0000000  0.0000000  1.0000000 )
                  (  0.0000000 -1.0000000  0.0000000 )


      isym = 16      90 deg rotation - cart. axis [1,0,0]        

 cryst.   s(16) = (     1          0          0      )
                  (     0          0          1      )
                  (     0         -1          0      )

 cart.    s(16) = (  1.0000000  0.0000000  0.0000000 )
                  (  0.0000000  0.0000000 -1.0000000 )
                  (  0.0000000  1.0000000  0.0000000 )


      isym = 17     120 deg rotation - cart. axis [-1,-1,-1]     

 cryst.   s(17) = (     0          0          1      )
                  (     1          0          0      )
                  (     0          1          0      )

 cart.    s(17) = (  0.0000000  1.0000000  0.0000000 )
                  (  0.0000000  0.0000000  1.0000000 )
                  (  1.0000000  0.0000000  0.0000000 )


      isym = 18     120 deg rotation - cart. axis [-1,1,1]       

 cryst.   s(18) = (     0          0         -1      )
                  (    -1          0          0      )
                  (     0          1          0      )

 cart.    s(18) = (  0.0000000 -1.0000000  0.0000000 )
                  (  0.0000000  0.0000000  1.0000000 )
                  ( -1.0000000  0.0000000  0.0000000 )


      isym = 19     120 deg rotation - cart. axis [1,1,-1]       

 cryst.   s(19) = (     0          0         -1      )
                  (     1          0          0      )
                  (     0         -1          0      )

 cart.    s(19) = (  0.0000000  1.0000000  0.0000000 )
                  (  0.0000000  0.0000000 -1.0000000 )
                  ( -1.0000000  0.0000000  0.0000000 )


      isym = 20     120 deg rotation - cart. axis [1,-1,1]       

 cryst.   s(20) = (     0          0          1      )
                  (    -1          0          0      )
                  (     0         -1          0      )

 cart.    s(20) = (  0.0000000 -1.0000000  0.0000000 )
                  (  0.0000000  0.0000000 -1.0000000 )
                  (  1.0000000  0.0000000  0.0000000 )


      isym = 21     120 deg rotation - cart. axis [1,1,1]        

 cryst.   s(21) = (     0          1          0      )
                  (     0          0          1      )
                  (     1          0          0      )

 cart.    s(21) = (  0.0000000  0.0000000  1.0000000 )
                  (  1.0000000  0.0000000  0.0000000 )
                  (  0.0000000  1.0000000  0.0000000 )


      isym = 22     120 deg rotation - cart. axis [-1,1,-1]      

 cryst.   s(22) = (     0         -1          0      )
                  (     0          0         -1      )
                  (     1          0          0      )

 cart.    s(22) = (  0.0000000  0.0000000  1.0000000 )
                  ( -1.0000000  0.0000000  0.0000000 )
                  (  0.0000000 -1.0000000  0.0000000 )


      isym = 23     120 deg rotation - cart. axis [1,-1,-1]      

 cryst.   s(23) = (     0         -1          0      )
                  (     0          0          1      )
                  (    -1          0          0      )

 cart.    s(23) = (  0.0000000  0.0000000 -1.0000000 )
                  ( -1.0000000  0.0000000  0.0000000 )
                  (  0.0000000  1.0000000  0.0000000 )


      isym = 24     120 deg rotation - cart. axis [-1,-1,1]      

 cryst.   s(24) = (     0          1          0      )
                  (     0          0         -1      )
                  (    -1          0          0      )

 cart.    s(24) = (  0.0000000  0.0000000 -1.0000000 )
                  (  1.0000000  0.0000000  0.0000000 )
                  (  0.0000000 -1.0000000  0.0000000 )


      isym = 25     inversion                                    

 cryst.   s(25) = (    -1          0          0      )
                  (     0         -1          0      )
                  (     0          0         -1      )

 cart.    s(25) = ( -1.0000000  0.0000000  0.0000000 )
                  (  0.0000000 -1.0000000  0.0000000 )
                  (  0.0000000  0.0000000 -1.0000000 )


      isym = 26     inv. 180 deg rotation - cart. axis [0,0,1]   

 cryst.   s(26) = (     1          0          0      )
                  (     0          1          0      )
                  (     0          0         -1      )

 cart.    s(26) = (  1.0000000  0.0000000  0.0000000 )
                  (  0.0000000  1.0000000  0.0000000 )
                  (  0.0000000  0.0000000 -1.0000000 )


      isym = 27     inv. 180 deg rotation - cart. axis [0,1,0]   

 cryst.   s(27) = (     1          0          0      )
                  (     0         -1          0      )
                  (     0          0          1      )

 cart.    s(27) = (  1.0000000  0.0000000  0.0000000 )
                  (  0.0000000 -1.0000000  0.0000000 )
                  (  0.0000000  0.0000000  1.0000000 )


      isym = 28     inv. 180 deg rotation - cart. axis [1,0,0]   

 cryst.   s(28) = (    -1          0          0      )
                  (     0          1          0      )
                  (     0          0          1      )

 cart.    s(28) = ( -1.0000000  0.0000000  0.0000000 )
                  (  0.0000000  1.0000000  0.0000000 )
                  (  0.0000000  0.0000000  1.0000000 )


      isym = 29     inv. 180 deg rotation - cart. axis [1,1,0]   

 cryst.   s(29) = (     0         -1          0      )
                  (    -1          0          0      )
                  (     0          0          1      )

 cart.    s(29) = (  0.0000000 -1.0000000  0.0000000 )
                  ( -1.0000000  0.0000000  0.0000000 )
                  (  0.0000000  0.0000000  1.0000000 )


      isym = 30     inv. 180 deg rotation - cart. axis [1,-1,0]  

 cryst.   s(30) = (     0          1          0      )
                  (     1          0          0      )
                  (     0          0          1      )

 cart.    s(30) = (  0.0000000  1.0000000  0.0000000 )
                  (  1.0000000  0.0000000  0.0000000 )
                  (  0.0000000  0.0000000  1.0000000 )


      isym = 31     inv.  90 deg rotation - cart. axis [0,0,-1]  

 cryst.   s(31) = (     0          1          0      )
                  (    -1          0          0      )
                  (     0          0         -1      )

 cart.    s(31) = (  0.0000000 -1.0000000  0.0000000 )
                  (  1.0000000  0.0000000  0.0000000 )
                  (  0.0000000  0.0000000 -1.0000000 )


      isym = 32     inv.  90 deg rotation - cart. axis [0,0,1]   

 cryst.   s(32) = (     0         -1          0      )
                  (     1          0          0      )
                  (     0          0         -1      )

 cart.    s(32) = (  0.0000000  1.0000000  0.0000000 )
                  ( -1.0000000  0.0000000  0.0000000 )
                  (  0.0000000  0.0000000 -1.0000000 )


      isym = 33     inv. 180 deg rotation - cart. axis [1,0,1]   

 cryst.   s(33) = (     0          0         -1      )
                  (     0          1          0      )
                  (    -1          0          0      )

 cart.    s(33) = (  0.0000000  0.0000000 -1.0000000 )
                  (  0.0000000  1.0000000  0.0000000 )
                  ( -1.0000000  0.0000000  0.0000000 )


      isym = 34     inv. 180 deg rotation - cart. axis [-1,0,1]  

 cryst.   s(34) = (     0          0          1      )
                  (     0          1          0      )
                  (     1          0          0      )

 cart.    s(34) = (  0.0000000  0.0000000  1.0000000 )
                  (  0.0000000  1.0000000  0.0000000 )
                  (  1.0000000  0.0000000  0.0000000 )


      isym = 35     inv.  90 deg rotation - cart. axis [0,1,0]   

 cryst.   s(35) = (     0          0          1      )
                  (     0         -1          0      )
                  (    -1          0          0      )

 cart.    s(35) = (  0.0000000  0.0000000 -1.0000000 )
                  (  0.0000000 -1.0000000  0.0000000 )
                  (  1.0000000  0.0000000  0.0000000 )


      isym = 36     inv.  90 deg rotation - cart. axis [0,-1,0]  

 cryst.   s(36) = (     0          0         -1      )
                  (     0         -1          0      )
                  (     1          0          0      )

 cart.    s(36) = (  0.0000000  0.0000000  1.0000000 )
                  (  0.0000000 -1.0000000  0.0000000 )
                  ( -1.0000000  0.0000000  0.0000000 )


      isym = 37     inv. 180 deg rotation - cart. axis [0,1,1]   

 cryst.   s(37) = (     1          0          0      )
                  (     0          0         -1      )
                  (     0         -1          0      )

 cart.    s(37) = (  1.0000000  0.0000000  0.0000000 )
                  (  0.0000000  0.0000000 -1.0000000 )
                  (  0.0000000 -1.0000000  0.0000000 )


      isym = 38     inv. 180 deg rotation - cart. axis [0,1,-1]  

 cryst.   s(38) = (     1          0          0      )
                  (     0          0          1      )
                  (     0          1          0      )

 cart.    s(38) = (  1.0000000  0.0000000  0.0000000 )
                  (  0.0000000  0.0000000  1.0000000 )
                  (  0.0000000  1.0000000  0.0000000 )


      isym = 39     inv.  90 deg rotation - cart. axis [-1,0,0]  

 cryst.   s(39) = (    -1          0          0      )
                  (     0          0          1      )
                  (     0         -1          0      )

 cart.    s(39) = ( -1.0000000  0.0000000  0.0000000 )
                  (  0.0000000  0.0000000 -1.0000000 )
                  (  0.0000000  1.0000000  0.0000000 )


      isym = 40     inv.  90 deg rotation - cart. axis [1,0,0]   

 cryst.   s(40) = (    -1          0          0      )
                  (     0          0         -1      )
                  (     0          1          0      )

 cart.    s(40) = ( -1.0000000  0.0000000  0.0000000 )
                  (  0.0000000  0.0000000  1.0000000 )
                  (  0.0000000 -1.0000000  0.0000000 )


      isym = 41     inv. 120 deg rotation - cart. axis [-1,-1,-1]

 cryst.   s(41) = (     0          0         -1      )
                  (    -1          0          0      )
                  (     0         -1          0      )

 cart.    s(41) = (  0.0000000 -1.0000000  0.0000000 )
                  (  0.0000000  0.0000000 -1.0000000 )
                  ( -1.0000000  0.0000000  0.0000000 )


      isym = 42     inv. 120 deg rotation - cart. axis [-1,1,1]  

 cryst.   s(42) = (     0          0          1      )
                  (     1          0          0      )
                  (     0         -1          0      )

 cart.    s(42) = (  0.0000000  1.0000000  0.0000000 )
                  (  0.0000000  0.0000000 -1.0000000 )
                  (  1.0000000  0.0000000  0.0000000 )


      isym = 43     inv. 120 deg rotation - cart. axis [1,1,-1]  

 cryst.   s(43) = (     0          0          1      )
                  (    -1          0          0      )
                  (     0          1          0      )

 cart.    s(43) = (  0.0000000 -1.0000000  0.0000000 )
                  (  0.0000000  0.0000000  1.0000000 )
                  (  1.0000000  0.0000000  0.0000000 )


      isym = 44     inv. 120 deg rotation - cart. axis [1,-1,1]  

 cryst.   s(44) = (     0          0         -1      )
                  (     1          0          0      )
                  (     0          1          0      )

 cart.    s(44) = (  0.0000000  1.0000000  0.0000000 )
                  (  0.0000000  0.0000000  1.0000000 )
                  ( -1.0000000  0.0000000  0.0000000 )


      isym = 45     inv. 120 deg rotation - cart. axis [1,1,1]   

 cryst.   s(45) = (     0         -1          0      )
                  (     0          0         -1      )
                  (    -1          0          0      )

 cart.    s(45) = (  0.0000000  0.0000000 -1.0000000 )
                  ( -1.0000000  0.0000000  0.0000000 )
                  (  0.0000000 -1.0000000  0.0000000 )


      isym = 46     inv. 120 deg rotation - cart. axis [-1,1,-1] 

 cryst.   s(46) = (     0          1          0      )
                  (     0          0          1      )
                  (    -1          0          0      )

 cart.    s(46) = (  0.0000000  0.0000000 -1.0000000 )
                  (  1.0000000  0.0000000  0.0000000 )
                  (  0.0000000  1.0000000  0.0000000 )


      isym = 47     inv. 120 deg rotation - cart. axis [1,-1,-1] 

 cryst.   s(47) = (     0          1          0      )
                  (     0          0         -1      )
                  (     1          0          0      )

 cart.    s(47) = (  0.0000000  0.0000000  1.0000000 )
                  (  1.0000000  0.0000000  0.0000000 )
                  (  0.0000000 -1.0000000  0.0000000 )


      isym = 48     inv. 120 deg rotation - cart. axis [-1,-1,1] 

 cryst.   s(48) = (     0         -1          0      )
                  (     0          0          1      )
                  (     1          0          0      )

 cart.    s(48) = (  0.0000000  0.0000000  1.0000000 )
                  ( -1.0000000  0.0000000  0.0000000 )
                  (  0.0000000  1.0000000  0.0000000 )


   Cartesian axes

     site n.     atom                  positions (alat units)
         1           Cs  tau(   1) = (   0.2500001   0.2500001   0.2500001  )
         2           Cs  tau(   2) = (   0.2500001   0.2500001   0.7499999  )
         3           Cs  tau(   3) = (   0.2500001   0.7499999   0.2500001  )
         4           Cs  tau(   4) = (   0.2500001   0.7499999   0.7499999  )
         5           Cs  tau(   5) = (   0.7499999   0.2500001   0.2500001  )
         6           Cs  tau(   6) = (   0.7499999   0.2500001   0.7499999  )
         7           Cs  tau(   7) = (   0.7499999   0.7499999   0.2500001  )
         8           Cs  tau(   8) = (   0.7499999   0.7499999   0.7499999  )
         9           Pb  tau(   9) = (   0.0000000   0.0000000   0.0000000  )
        10           Pb  tau(  10) = (   0.0000000   0.0000000   0.5000000  )
        11           Pb  tau(  11) = (   0.0000000   0.5000000   0.0000000  )
        12           Pb  tau(  12) = (   0.0000000   0.5000000   0.5000000  )
        13           Pb  tau(  13) = (   0.5000000   0.0000000   0.0000000  )
        14           Pb  tau(  14) = (   0.5000000   0.0000000   0.5000000  )
        15           Pb  tau(  15) = (   0.5000000   0.5000000   0.0000000  )
        16           Pb  tau(  16) = (   0.5000000   0.5000000   0.5000000  )
        17           I   tau(  17) = (   0.0000000   0.0000000   0.2500016  )
        18           I   tau(  18) = (   0.0000000   0.0000000   0.7499984  )
        19           I   tau(  19) = (   0.0000000   0.5000000   0.2500017  )
        20           I   tau(  20) = (   0.0000000   0.5000000   0.7499983  )
        21           I   tau(  21) = (   0.5000000   0.0000000   0.2500017  )
        22           I   tau(  22) = (   0.5000000   0.0000000   0.7499983  )
        23           I   tau(  23) = (   0.5000000   0.5000000   0.2500017  )
        24           I   tau(  24) = (   0.5000000   0.5000000   0.7499983  )
        25           I   tau(  25) = (   0.0000000   0.2500016   0.0000000  )
        26           I   tau(  26) = (   0.0000000   0.2500017   0.5000000  )
        27           I   tau(  27) = (   0.0000000   0.7499984   0.0000000  )
        28           I   tau(  28) = (   0.0000000   0.7499983   0.5000000  )
        29           I   tau(  29) = (   0.5000000   0.2500017   0.0000000  )
        30           I   tau(  30) = (   0.5000000   0.2500017   0.5000000  )
        31           I   tau(  31) = (   0.5000000   0.7499983   0.0000000  )
        32           I   tau(  32) = (   0.5000000   0.7499983   0.5000000  )
        33           I   tau(  33) = (   0.2500016   0.0000000   0.0000000  )
        34           I   tau(  34) = (   0.2500017   0.0000000   0.5000000  )
        35           I   tau(  35) = (   0.2500017   0.5000000   0.0000000  )
        36           I   tau(  36) = (   0.2500017   0.5000000   0.5000000  )
        37           I   tau(  37) = (   0.7499984   0.0000000   0.0000000  )
        38           I   tau(  38) = (   0.7499983   0.0000000   0.5000000  )
        39           I   tau(  39) = (   0.7499983   0.5000000   0.0000000  )
        40           I   tau(  40) = (   0.7499983   0.5000000   0.5000000  )

   Crystallographic axes

     site n.     atom                  positions (cryst. coord.)
         1           Cs  tau(   1) = (  0.2500001  0.2500001  0.2500001  )
         2           Cs  tau(   2) = (  0.2500001  0.2500001  0.7499999  )
         3           Cs  tau(   3) = (  0.2500001  0.7499999  0.2500001  )
         4           Cs  tau(   4) = (  0.2500001  0.7499999  0.7499999  )
         5           Cs  tau(   5) = (  0.7499999  0.2500001  0.2500001  )
         6           Cs  tau(   6) = (  0.7499999  0.2500001  0.7499999  )
         7           Cs  tau(   7) = (  0.7499999  0.7499999  0.2500001  )
         8           Cs  tau(   8) = (  0.7499999  0.7499999  0.7499999  )
         9           Pb  tau(   9) = (  0.0000000  0.0000000  0.0000000  )
        10           Pb  tau(  10) = (  0.0000000  0.0000000  0.5000000  )
        11           Pb  tau(  11) = (  0.0000000  0.5000000  0.0000000  )
        12           Pb  tau(  12) = (  0.0000000  0.5000000  0.5000000  )
        13           Pb  tau(  13) = (  0.5000000  0.0000000  0.0000000  )
        14           Pb  tau(  14) = (  0.5000000  0.0000000  0.5000000  )
        15           Pb  tau(  15) = (  0.5000000  0.5000000  0.0000000  )
        16           Pb  tau(  16) = (  0.5000000  0.5000000  0.5000000  )
        17           I   tau(  17) = (  0.0000000  0.0000000  0.2500016  )
        18           I   tau(  18) = (  0.0000000  0.0000000  0.7499984  )
        19           I   tau(  19) = (  0.0000000  0.5000000  0.2500017  )
        20           I   tau(  20) = (  0.0000000  0.5000000  0.7499983  )
        21           I   tau(  21) = (  0.5000000  0.0000000  0.2500017  )
        22           I   tau(  22) = (  0.5000000  0.0000000  0.7499983  )
        23           I   tau(  23) = (  0.5000000  0.5000000  0.2500017  )
        24           I   tau(  24) = (  0.5000000  0.5000000  0.7499983  )
        25           I   tau(  25) = (  0.0000000  0.2500016  0.0000000  )
        26           I   tau(  26) = (  0.0000000  0.2500017  0.5000000  )
        27           I   tau(  27) = (  0.0000000  0.7499984  0.0000000  )
        28           I   tau(  28) = (  0.0000000  0.7499983  0.5000000  )
        29           I   tau(  29) = (  0.5000000  0.2500017  0.0000000  )
        30           I   tau(  30) = (  0.5000000  0.2500017  0.5000000  )
        31           I   tau(  31) = (  0.5000000  0.7499983  0.0000000  )
        32           I   tau(  32) = (  0.5000000  0.7499983  0.5000000  )
        33           I   tau(  33) = (  0.2500016  0.0000000  0.0000000  )
        34           I   tau(  34) = (  0.2500017  0.0000000  0.5000000  )
        35           I   tau(  35) = (  0.2500017  0.5000000  0.0000000  )
        36           I   tau(  36) = (  0.2500017  0.5000000  0.5000000  )
        37           I   tau(  37) = (  0.7499984  0.0000000  0.0000000  )
        38           I   tau(  38) = (  0.7499983  0.0000000  0.5000000  )
        39           I   tau(  39) = (  0.7499983  0.5000000  0.0000000  )
        40           I   tau(  40) = (  0.7499983  0.5000000  0.5000000  )

     number of k points=     4  Marzari-Vanderbilt smearing, width (Ry)=  0.0147
                       cart. coord. in units 2pi/alat
        k(    1) = (   0.0000000   0.0000000   0.0000000), wk =   0.0740741
        k(    2) = (   0.0000000   0.0000000   0.3333333), wk =   0.4444444
        k(    3) = (   0.0000000   0.3333333   0.3333333), wk =   0.8888889
        k(    4) = (   0.3333333   0.3333333   0.3333333), wk =   0.5925926

                       cryst. coord.
        k(    1) = (   0.0000000   0.0000000   0.0000000), wk =   0.0740741
        k(    2) = (   0.0000000   0.0000000   0.3333333), wk =   0.4444444
        k(    3) = (   0.0000000   0.3333333   0.3333333), wk =   0.8888889
        k(    4) = (   0.3333333   0.3333333   0.3333333), wk =   0.5925926

     Dense  grid:  1356433 G-vectors     FFT dimensions: ( 144, 144, 144)

     Smooth grid:   409085 G-vectors     FFT dimensions: (  96,  96,  96)

     Dynamical RAM for                 wfc:     164.77 MB

     Dynamical RAM for     wfc (w. buffer):     823.85 MB

     Dynamical RAM for           str. fact:      62.09 MB

     Dynamical RAM for           local pot:       0.00 MB

     Dynamical RAM for          nlocal pot:     374.83 MB

     Dynamical RAM for                qrad:       4.31 MB

     Dynamical RAM for          rho,v,vnew:     130.44 MB

     Dynamical RAM for               rhoin:      43.48 MB

     Dynamical RAM for            rho*nmix:     331.16 MB

     Dynamical RAM for           G-vectors:      80.74 MB

     Dynamical RAM for          h,s,v(r/c):       8.15 MB

     Dynamical RAM for          <psi|beta>:       1.55 MB

     Dynamical RAM for                 psi:     329.54 MB

     Dynamical RAM for                hpsi:     329.54 MB

     Dynamical RAM for                spsi:     329.54 MB

     Dynamical RAM for      wfcinit/wfcrot:     426.50 MB

     Dynamical RAM for           addusdens:    4346.48 MB

     Dynamical RAM for          addusforce:    5309.01 MB

     Dynamical RAM for         addusstress:    4160.20 MB

     Estimated static dynamical RAM per process >       2.00 GB

     Estimated max dynamical RAM per process >       7.18 GB

     Initial potential from superposition of free atoms

     starting charge  351.66429, renormalised to  352.00000
     Starting wfcs are  272 randomized atomic wfcs
     Checking if some PAW data can be deallocated... 

     total cpu time spent up to now is      261.0 secs

     Self-consistent Calculation

     iteration #  1     ecut=    36.00 Ry     beta= 0.40
     Davidson diagonalization with overlap
     ethr =  1.00E-02,  avg # of iterations =  2.8

     Threshold (ethr) on eigenvalues was too large:
     Diagonalizing with lowered threshold

     Davidson diagonalization with overlap
     ethr =  2.57E-04,  avg # of iterations =  9.8

     total cpu time spent up to now is     1572.5 secs

     total energy              =  -16565.68126274 Ry
     estimated scf accuracy    <       0.82032480 Ry

     iteration #  2     ecut=    36.00 Ry     beta= 0.40
     Davidson diagonalization with overlap
     ethr =  2.33E-04,  avg # of iterations =  2.0

     total cpu time spent up to now is     2250.1 secs

     total energy              =  -16565.80811211 Ry
     estimated scf accuracy    <       0.05316430 Ry

     iteration #  3     ecut=    36.00 Ry     beta= 0.40
     Davidson diagonalization with overlap
     ethr =  1.51E-05,  avg # of iterations = 16.5

     total cpu time spent up to now is     3369.9 secs

     total energy              =  -16565.83507717 Ry
     estimated scf accuracy    <       0.01603089 Ry

     iteration #  4     ecut=    36.00 Ry     beta= 0.40
     Davidson diagonalization with overlap
     ethr =  4.55E-06,  avg # of iterations =  8.0

     total cpu time spent up to now is     4084.1 secs

     total energy              =  -16565.83781612 Ry
     estimated scf accuracy    <       0.00228246 Ry

     iteration #  5     ecut=    36.00 Ry     beta= 0.40
     Davidson diagonalization with overlap
     ethr =  6.48E-07,  avg # of iterations =  5.5

     total cpu time spent up to now is     4824.7 secs

     total energy              =  -16565.83830893 Ry
     estimated scf accuracy    <       0.00035860 Ry

     iteration #  6     ecut=    36.00 Ry     beta= 0.40
     Davidson diagonalization with overlap
     ethr =  1.02E-07,  avg # of iterations =  5.0

     total cpu time spent up to now is     5542.3 secs

     total energy              =  -16565.83838266 Ry
     estimated scf accuracy    <       0.00009788 Ry

     iteration #  7     ecut=    36.00 Ry     beta= 0.40
     Davidson diagonalization with overlap
     ethr =  2.78E-08,  avg # of iterations =  4.8

     total cpu time spent up to now is     6326.4 secs

     total energy              =  -16565.83841453 Ry
     estimated scf accuracy    <       0.00001249 Ry

     iteration #  8     ecut=    36.00 Ry     beta= 0.40
     Davidson diagonalization with overlap
     ethr =  3.55E-09,  avg # of iterations =  5.5

     total cpu time spent up to now is     7037.9 secs

     total energy              =  -16565.83841766 Ry
     estimated scf accuracy    <       0.00000365 Ry

     iteration #  9     ecut=    36.00 Ry     beta= 0.40
     Davidson diagonalization with overlap
     ethr =  1.04E-09,  avg # of iterations =  5.2

     total cpu time spent up to now is     7790.8 secs

     total energy              =  -16565.83841867 Ry
     estimated scf accuracy    <       0.00000072 Ry

     iteration # 10     ecut=    36.00 Ry     beta= 0.40
     Davidson diagonalization with overlap
     ethr =  2.05E-10,  avg # of iterations =  5.2

     total cpu time spent up to now is     8502.1 secs

     total energy              =  -16565.83841879 Ry
     estimated scf accuracy    <       0.00000023 Ry

     iteration # 11     ecut=    36.00 Ry     beta= 0.40
     Davidson diagonalization with overlap
     ethr =  6.46E-11,  avg # of iterations =  4.8

     total cpu time spent up to now is     9232.3 secs

     End of self-consistent calculation

          k = 0.0000 0.0000 0.0000 ( 51219 PWs)   bands (ev):

   -18.6196 -18.6194 -18.6194 -18.6194 -18.6192 -18.6192 -18.6192 -18.6190
   -13.8956 -13.8955 -13.8955 -13.8954 -13.8954 -13.8899 -13.8898 -13.8898
   -13.8841 -13.8840 -13.8840 -13.8782 -13.8781 -13.8781 -13.8777 -13.8777
   -13.8436 -13.8436 -13.8436 -13.8433 -13.8433 -13.8433 -13.8432 -13.8432
   -13.8432 -13.8432 -13.8432 -13.8432 -13.8431 -13.8431 -13.8431 -13.8431
   -13.8431 -13.8431 -13.8430 -13.8430 -13.8430 -13.8427 -13.8427 -13.8427
    -9.3422  -9.1453  -9.1453  -9.1453  -8.9034  -8.9034  -8.9034  -8.8417
    -8.8417  -8.8417  -8.8417  -8.8417  -8.8417  -8.8412  -8.8412  -8.8412
    -8.8360  -8.8360  -8.8360  -8.6146  -8.6146  -8.6125  -8.6125  -8.6125
    -5.6594  -5.4081  -5.4081  -5.4081  -5.3951  -5.3951  -5.3951  -5.3949
    -5.3949  -5.3949  -5.3949  -5.3949  -5.3949  -5.3911  -5.3911  -5.3911
    -5.3911  -5.3911  -5.3911  -5.3879  -5.3879  -5.3879  -5.3870  -5.3870
    -5.3870  -5.1308  -5.1308  -5.1308  -4.6247  -4.6247  -4.6247  -4.1117
    -0.6231  -0.6231  -0.6231  -0.5201  -0.5201  -0.5201  -0.5201  -0.5201
    -0.5201  -0.3841  -0.3841  -0.3841   0.6072   0.6072   0.6072   0.7392
     0.7392   0.7392   0.8907   0.8907   0.8907   1.2094   1.2094   1.2094
     1.2094   1.2094   1.2094   1.3069   1.3069   1.3069   1.3069   1.3069
     1.3069   1.3554   1.3554   1.3554   1.3554   1.3554   1.3554   1.4196
     1.4196   1.4196   1.4316   1.4316   1.4316   1.4395   1.4395   1.5490
     1.5490   1.5490   1.5747   1.5747   1.5747   1.5747   1.5747   1.5747
     1.6634   1.6634   1.6634   1.8962   1.8962   1.8962   2.0490   2.0490
     2.0490   2.0612   2.0612   2.0612   2.3316   2.3316   2.3316   2.7678
     4.2016   4.2016   4.2016   4.6291   4.6291   4.6291   4.6291   4.6291
     4.6291   4.9608   4.9608   4.9608   5.8995   6.7508   6.9741   6.9741
     7.3225   7.3225   7.3225   7.3840   7.3841   7.3841   7.5518   7.5518
     7.5518   7.6020   7.6020   7.6021   7.7696   7.7696   7.7697   7.8690
     7.9120   7.9120   7.9120

     occupation numbers 
     1.0000   1.0000   1.0000   1.0000   1.0000   1.0000   1.0000   1.0000
     1.0000   1.0000   1.0000   1.0000   1.0000   1.0000   1.0000   1.0000
     1.0000   1.0000   1.0000   1.0000   1.0000   1.0000   1.0000   1.0000
     1.0000   1.0000   1.0000   1.0000   1.0000   1.0000   1.0000   1.0000
     1.0000   1.0000   1.0000   1.0000   1.0000   1.0000   1.0000   1.0000
     1.0000   1.0000   1.0000   1.0000   1.0000   1.0000   1.0000   1.0000
     1.0000   1.0000   1.0000   1.0000   1.0000   1.0000   1.0000   1.0000
     1.0000   1.0000   1.0000   1.0000   1.0000   1.0000   1.0000   1.0000
     1.0000   1.0000   1.0000   1.0000   1.0000   1.0000   1.0000   1.0000
     1.0000   1.0000   1.0000   1.0000   1.0000   1.0000   1.0000   1.0000
     1.0000   1.0000   1.0000   1.0000   1.0000   1.0000   1.0000   1.0000
     1.0000   1.0000   1.0000   1.0000   1.0000   1.0000   1.0000   1.0000
     1.0000   1.0000   1.0000   1.0000   1.0000   1.0000   1.0000   1.0000
     1.0000   1.0000   1.0000   1.0000   1.0000   1.0000   1.0000   1.0000
     1.0000   1.0000   1.0000   1.0000   1.0000   1.0000   1.0000   1.0000
     1.0000   1.0000   1.0000   1.0000   1.0000   1.0000   1.0000   1.0000
     1.0000   1.0000   1.0000   1.0000   1.0000   1.0000   1.0000   1.0000
     1.0000   1.0000   1.0000   1.0000   1.0000   1.0000   1.0000   1.0000
     1.0000   1.0000   1.0000   1.0000   1.0000   1.0000   1.0000   1.0000
     1.0000   1.0000   1.0000   1.0000   1.0000   1.0000   1.0000   1.0000
     1.0000   1.0000   1.0000   1.0000   1.0000   1.0000   1.0014   1.0014
     1.0014   1.0018   1.0018   1.0018   1.0764   1.0764   1.0764   0.1104
     0.0000   0.0000   0.0000   0.0000   0.0000   0.0000   0.0000   0.0000
     0.0000   0.0000   0.0000   0.0000   0.0000   0.0000   0.0000   0.0000
     0.0000   0.0000   0.0000   0.0000   0.0000   0.0000   0.0000   0.0000
     0.0000   0.0000   0.0000   0.0000   0.0000   0.0000   0.0000   0.0000
     0.0000   0.0000   0.0000

          k = 0.0000 0.0000 0.3333 ( 51166 PWs)   bands (ev):

   -18.6195 -18.6194 -18.6193 -18.6193 -18.6192 -18.6192 -18.6191 -18.6190
   -13.8955 -13.8954 -13.8934 -13.8934 -13.8925 -13.8906 -13.8905 -13.8870
   -13.8869 -13.8830 -13.8830 -13.8810 -13.8801 -13.8801 -13.8781 -13.8780
   -13.8436 -13.8435 -13.8435 -13.8435 -13.8433 -13.8433 -13.8433 -13.8433
   -13.8432 -13.8432 -13.8432 -13.8431 -13.8430 -13.8430 -13.8430 -13.8430
   -13.8430 -13.8430 -13.8429 -13.8429 -13.8429 -13.8428 -13.8428 -13.8428
    -9.3066  -9.2147  -9.1097  -9.1097  -9.0121  -9.0121  -8.8875  -8.8539
    -8.8416  -8.8416  -8.8413  -8.8413  -8.8403  -8.8403  -8.8375  -8.8375
    -8.7640  -8.7359  -8.7359  -8.6573  -8.6446  -8.6446  -8.6141  -8.6130
    -5.5398  -5.4048  -5.4048  -5.4031  -5.3982  -5.3982  -5.3941  -5.3941
    -5.3940  -5.3940  -5.3940  -5.3940  -5.3930  -5.3925  -5.3921  -5.3921
    -5.3921  -5.3921  -5.3903  -5.3903  -5.3896  -5.3896  -5.3887  -5.3887
    -5.3883  -5.2775  -5.0197  -5.0197  -4.7699  -4.7699  -4.5183  -4.2661
    -0.5990  -0.5990  -0.5476  -0.5476  -0.4889  -0.4889  -0.4212  -0.4212
    -0.2306  -0.1328  -0.1328   0.0067   0.5597   0.6394   0.6698   0.6698
     0.7053   0.7141   0.7141   0.7997   0.7997   0.8134   0.8134   0.9005
     0.9760   0.9760   1.2022   1.2022   1.2218   1.2218   1.3189   1.3189
     1.3431   1.3431   1.3760   1.3760   1.4110   1.4110   1.4336   1.4373
     1.4507   1.5021   1.5021   1.5095   1.5095   1.5106   1.5106   1.5153
     1.5539   1.5539   1.5899   1.5899   1.6018   1.6018   1.6247   1.6313
     1.6313   1.6571   1.6755   1.6755   1.9184   1.9184   1.9305   1.9305
     1.9382   1.9382   2.0520   2.0581   2.0782   2.0782   2.3575   2.4814
     4.3209   4.3209   4.5332   4.5332   4.7215   4.7215   4.8881   4.8881
     5.2142   5.5317   5.5317   5.8185   6.1518   6.7140   6.7868   6.9439
     7.0562   7.0562   7.1129   7.1800   7.3964   7.4486   7.4486   7.4509
     7.4535   7.5622   7.5623   7.5932   7.5933   7.6740   7.7361   7.7361
     7.7752   7.7752   7.8643

     occupation numbers 
     1.0000   1.0000   1.0000   1.0000   1.0000   1.0000   1.0000   1.0000
     1.0000   1.0000   1.0000   1.0000   1.0000   1.0000   1.0000   1.0000
     1.0000   1.0000   1.0000   1.0000   1.0000   1.0000   1.0000   1.0000
     1.0000   1.0000   1.0000   1.0000   1.0000   1.0000   1.0000   1.0000
     1.0000   1.0000   1.0000   1.0000   1.0000   1.0000   1.0000   1.0000
     1.0000   1.0000   1.0000   1.0000   1.0000   1.0000   1.0000   1.0000
     1.0000   1.0000   1.0000   1.0000   1.0000   1.0000   1.0000   1.0000
     1.0000   1.0000   1.0000   1.0000   1.0000   1.0000   1.0000   1.0000
     1.0000   1.0000   1.0000   1.0000   1.0000   1.0000   1.0000   1.0000
     1.0000   1.0000   1.0000   1.0000   1.0000   1.0000   1.0000   1.0000
     1.0000   1.0000   1.0000   1.0000   1.0000   1.0000   1.0000   1.0000
     1.0000   1.0000   1.0000   1.0000   1.0000   1.0000   1.0000   1.0000
     1.0000   1.0000   1.0000   1.0000   1.0000   1.0000   1.0000   1.0000
     1.0000   1.0000   1.0000   1.0000   1.0000   1.0000   1.0000   1.0000
     1.0000   1.0000   1.0000   1.0000   1.0000   1.0000   1.0000   1.0000
     1.0000   1.0000   1.0000   1.0000   1.0000   1.0000   1.0000   1.0000
     1.0000   1.0000   1.0000   1.0000   1.0000   1.0000   1.0000   1.0000
     1.0000   1.0000   1.0000   1.0000   1.0000   1.0000   1.0000   1.0000
     1.0000   1.0000   1.0000   1.0000   1.0000   1.0000   1.0000   1.0000
     1.0000   1.0000   1.0000   1.0000   1.0000   1.0000   1.0000   1.0000
     1.0000   1.0000   1.0000   1.0000   1.0000   1.0000   1.0001   1.0001
     1.0001   1.0001   1.0015   1.0017   1.0026   1.0026   1.0826   0.9717
     0.0000   0.0000   0.0000   0.0000   0.0000   0.0000   0.0000   0.0000
     0.0000   0.0000   0.0000   0.0000   0.0000   0.0000   0.0000   0.0000
     0.0000   0.0000   0.0000   0.0000   0.0000   0.0000   0.0000   0.0000
     0.0000   0.0000   0.0000   0.0000   0.0000   0.0000   0.0000   0.0000
     0.0000   0.0000   0.0000

          k = 0.0000 0.3333 0.3333 ( 51184 PWs)   bands (ev):

   -18.6195 -18.6194 -18.6194 -18.6193 -18.6193 -18.6192 -18.6192 -18.6191
   -13.8941 -13.8935 -13.8934 -13.8913 -13.8912 -13.8911 -13.8879 -13.8878
   -13.8859 -13.8859 -13.8826 -13.8825 -13.8824 -13.8801 -13.8800 -13.8795
   -13.8434 -13.8434 -13.8434 -13.8434 -13.8434 -13.8433 -13.8433 -13.8432
   -13.8432 -13.8432 -13.8431 -13.8431 -13.8431 -13.8431 -13.8431 -13.8430
   -13.8430 -13.8430 -13.8430 -13.8429 -13.8429 -13.8428 -13.8428 -13.8428
    -9.2715  -9.1803  -9.1803  -9.0892  -9.0769  -8.9875  -8.9875  -8.9236
    -8.8410  -8.8405  -8.8405  -8.8385  -8.7874  -8.7825  -8.7663  -8.7663
    -8.7469  -8.7469  -8.7134  -8.6739  -8.6708  -8.6444  -8.6444  -8.6367
    -5.4303  -5.4039  -5.3980  -5.3980  -5.3978  -5.3976  -5.3976  -5.3954
    -5.3949  -5.3947  -5.3946  -5.3935  -5.3935  -5.3932  -5.3926  -5.3915
    -5.3913  -5.3913  -5.3910  -5.3910  -5.3902  -5.3896  -5.3893  -5.3889
    -5.3889  -5.1643  -5.1643  -4.9138  -4.9117  -4.6640  -4.6640  -4.4158
    -0.5733  -0.5184  -0.5184  -0.4555  -0.2843  -0.1685  -0.1685  -0.1633
    -0.1319  -0.0404  -0.0387  -0.0387   0.5634   0.5769   0.5769   0.6337
     0.6922   0.6922   0.7235   0.7295   0.7295   0.7508   0.7719   0.7875
     0.8186   0.9794   0.9794   1.0455   1.0481   1.1476   1.1843   1.1843
     1.2205   1.2205   1.3297   1.3472   1.3633   1.3980   1.3980   1.4095
     1.4840   1.5231   1.5276   1.5276   1.5302   1.5498   1.5498   1.5641
     1.5823   1.5859   1.5937   1.5937   1.6236   1.6236   1.6701   1.6900
     1.6900   1.7088   1.7365   1.7543   1.7543   1.7893   1.8638   1.8899
     1.8960   1.9440   1.9440   1.9469   1.9785   2.0863   2.0863   2.1776
     4.4316   4.6311   4.6311   4.8087   5.2454   5.3328   5.4490   5.4490
     5.5714   5.6329   5.7479   5.7479   6.3630   6.7721   6.7721   6.8930
     6.8930   6.9110   6.9622   7.0786   7.1659   7.1659   7.1969   7.2793
     7.2932   7.3403   7.3492   7.4162   7.4393   7.4393   7.5712   7.5848
     7.5848   7.6237   7.6965

     occupation numbers 
     1.0000   1.0000   1.0000   1.0000   1.0000   1.0000   1.0000   1.0000
     1.0000   1.0000   1.0000   1.0000   1.0000   1.0000   1.0000   1.0000
     1.0000   1.0000   1.0000   1.0000   1.0000   1.0000   1.0000   1.0000
     1.0000   1.0000   1.0000   1.0000   1.0000   1.0000   1.0000   1.0000
     1.0000   1.0000   1.0000   1.0000   1.0000   1.0000   1.0000   1.0000
     1.0000   1.0000   1.0000   1.0000   1.0000   1.0000   1.0000   1.0000
     1.0000   1.0000   1.0000   1.0000   1.0000   1.0000   1.0000   1.0000
     1.0000   1.0000   1.0000   1.0000   1.0000   1.0000   1.0000   1.0000
     1.0000   1.0000   1.0000   1.0000   1.0000   1.0000   1.0000   1.0000
     1.0000   1.0000   1.0000   1.0000   1.0000   1.0000   1.0000   1.0000
     1.0000   1.0000   1.0000   1.0000   1.0000   1.0000   1.0000   1.0000
     1.0000   1.0000   1.0000   1.0000   1.0000   1.0000   1.0000   1.0000
     1.0000   1.0000   1.0000   1.0000   1.0000   1.0000   1.0000   1.0000
     1.0000   1.0000   1.0000   1.0000   1.0000   1.0000   1.0000   1.0000
     1.0000   1.0000   1.0000   1.0000   1.0000   1.0000   1.0000   1.0000
     1.0000   1.0000   1.0000   1.0000   1.0000   1.0000   1.0000   1.0000
     1.0000   1.0000   1.0000   1.0000   1.0000   1.0000   1.0000   1.0000
     1.0000   1.0000   1.0000   1.0000   1.0000   1.0000   1.0000   1.0000
     1.0000   1.0000   1.0000   1.0000   1.0000   1.0000   1.0000   1.0000
     1.0000   1.0000   1.0000   1.0000   1.0000   1.0000   1.0000   1.0000
     1.0000   1.0000   1.0000   1.0000   1.0000   1.0000   1.0000   1.0000
     1.0000   1.0001   1.0001   1.0001   1.0003   1.0031   1.0031   1.0157
     0.0000   0.0000   0.0000   0.0000   0.0000   0.0000   0.0000   0.0000
     0.0000   0.0000   0.0000   0.0000   0.0000   0.0000   0.0000   0.0000
     0.0000   0.0000   0.0000   0.0000   0.0000   0.0000   0.0000   0.0000
     0.0000   0.0000   0.0000   0.0000   0.0000   0.0000   0.0000   0.0000
     0.0000   0.0000   0.0000

          k = 0.3333 0.3333 0.3333 ( 51236 PWs)   bands (ev):

   -18.6194 -18.6193 -18.6193 -18.6193 -18.6192 -18.6192 -18.6192 -18.6191
   -13.8912 -13.8912 -13.8912 -13.8911 -13.8911 -13.8884 -13.8884 -13.8884
   -13.8855 -13.8855 -13.8855 -13.8826 -13.8825 -13.8825 -13.8824 -13.8824
   -13.8433 -13.8433 -13.8433 -13.8433 -13.8433 -13.8433 -13.8433 -13.8433
   -13.8432 -13.8431 -13.8431 -13.8431 -13.8431 -13.8431 -13.8431 -13.8431
   -13.8431 -13.8431 -13.8430 -13.8430 -13.8430 -13.8429 -13.8429 -13.8429
    -9.2372  -9.1476  -9.1476  -9.1476  -9.0614  -9.0614  -9.0614  -8.9887
    -8.7862  -8.7862  -8.7861  -8.7837  -8.7837  -8.7676  -8.7676  -8.7676
    -8.7313  -8.7313  -8.7313  -8.6732  -8.6732  -8.6716  -8.6716  -8.6716
    -5.4015  -5.4015  -5.3972  -5.3969  -5.3969  -5.3969  -5.3969  -5.3969
    -5.3969  -5.3952  -5.3952  -5.3952  -5.3948  -5.3948  -5.3941  -5.3941
    -5.3941  -5.3895  -5.3895  -5.3895  -5.3877  -5.3875  -5.3875  -5.3875
    -5.3059  -5.0553  -5.0553  -5.0553  -4.8078  -4.8078  -4.8078  -4.5620
    -0.2568  -0.2568  -0.1967  -0.1967  -0.1967  -0.0836  -0.0836  -0.0836
    -0.0804  -0.0804  -0.0804  -0.0383   0.5895   0.5895   0.5895   0.5929
     0.5929   0.5929   0.6479   0.6479   0.6479   0.6625   0.6625   0.6870
     0.9544   0.9544   0.9952   0.9952   0.9952   1.1267   1.1267   1.1267
     1.1692   1.1692   1.1692   1.2655   1.2655   1.2655   1.3139   1.3139
     1.4226   1.4396   1.4396   1.4396   1.4838   1.4838   1.4838   1.6648
     1.6769   1.6769   1.6769   1.7059   1.7059   1.7131   1.7131   1.7131
     1.7301   1.7301   1.7301   1.7354   1.7658   1.7658   1.7658   1.8208
     1.8208   1.8208   1.8783   1.8783   1.8970   1.8970   1.8970   1.9195
     5.3251   5.3251   5.4400   5.4884   5.4884   5.4884   5.5535   5.5535
     5.5535   5.6718   5.6718   5.6718   6.5115   6.8106   6.8106   6.8106
     6.8442   6.8442   6.8442   7.0072   7.0073   7.0073   7.1146   7.1417
     7.1417   7.1801   7.1802   7.1804   7.1847   7.2795   7.2795   7.2795
     7.3996   7.3997   7.7694

     occupation numbers 
     1.0000   1.0000   1.0000   1.0000   1.0000   1.0000   1.0000   1.0000
     1.0000   1.0000   1.0000   1.0000   1.0000   1.0000   1.0000   1.0000
     1.0000   1.0000   1.0000   1.0000   1.0000   1.0000   1.0000   1.0000
     1.0000   1.0000   1.0000   1.0000   1.0000   1.0000   1.0000   1.0000
     1.0000   1.0000   1.0000   1.0000   1.0000   1.0000   1.0000   1.0000
     1.0000   1.0000   1.0000   1.0000   1.0000   1.0000   1.0000   1.0000
     1.0000   1.0000   1.0000   1.0000   1.0000   1.0000   1.0000   1.0000
     1.0000   1.0000   1.0000   1.0000   1.0000   1.0000   1.0000   1.0000
     1.0000   1.0000   1.0000   1.0000   1.0000   1.0000   1.0000   1.0000
     1.0000   1.0000   1.0000   1.0000   1.0000   1.0000   1.0000   1.0000
     1.0000   1.0000   1.0000   1.0000   1.0000   1.0000   1.0000   1.0000
     1.0000   1.0000   1.0000   1.0000   1.0000   1.0000   1.0000   1.0000
     1.0000   1.0000   1.0000   1.0000   1.0000   1.0000   1.0000   1.0000
     1.0000   1.0000   1.0000   1.0000   1.0000   1.0000   1.0000   1.0000
     1.0000   1.0000   1.0000   1.0000   1.0000   1.0000   1.0000   1.0000
     1.0000   1.0000   1.0000   1.0000   1.0000   1.0000   1.0000   1.0000
     1.0000   1.0000   1.0000   1.0000   1.0000   1.0000   1.0000   1.0000
     1.0000   1.0000   1.0000   1.0000   1.0000   1.0000   1.0000   1.0000
     1.0000   1.0000   1.0000   1.0000   1.0000   1.0000   1.0000   1.0000
     1.0000   1.0000   1.0000   1.0000   1.0000   1.0000   1.0000   1.0000
     1.0000   1.0000   1.0000   1.0000   1.0000   1.0000   1.0000   1.0000
     1.0000   1.0000   1.0000   1.0000   1.0000   1.0000   1.0000   1.0000
     0.0000   0.0000   0.0000   0.0000   0.0000   0.0000   0.0000   0.0000
     0.0000   0.0000   0.0000   0.0000   0.0000   0.0000   0.0000   0.0000
     0.0000   0.0000   0.0000   0.0000   0.0000   0.0000   0.0000   0.0000
     0.0000   0.0000   0.0000   0.0000   0.0000   0.0000   0.0000   0.0000
     0.0000   0.0000   0.0000

     the Fermi energy is     2.6517 ev

!    total energy              =  -16565.83841885 Ry
     estimated scf accuracy    <          6.5E-09 Ry
     smearing contrib. (-TS)   =       0.00294077 Ry
     internal energy E=F+TS    =  -16565.84135962 Ry

     The total energy is F=E-TS. E is the sum of the following terms:
     one-electron contribution =    -767.64814435 Ry
     hartree contribution      =     549.59735665 Ry
     xc contribution           =   -1598.35954458 Ry
     ewald contribution        =   -1229.22289246 Ry
     one-center paw contrib.   =  -13520.20813487 Ry
      -> PAW hartree energy AE =    1015.40074533 Ry
      -> PAW hartree energy PS =   -1014.89204818 Ry
      -> PAW xc energy AE      =  -14841.60958050 Ry
      -> PAW xc energy PS      =    1320.89274849 Ry
      -> total E_H with PAW    =     550.10605380 Ry
      -> total E_XC with PAW   =  -15119.07637660 Ry

     convergence has been achieved in  11 iterations

     Forces acting on atoms (cartesian axes, Ry/au):

     atom    1 type  1   force =     0.00000006    0.00000006    0.00000006
     atom    2 type  1   force =     0.00000006    0.00000006   -0.00000006
     atom    3 type  1   force =     0.00000006   -0.00000006    0.00000006
     atom    4 type  1   force =     0.00000006   -0.00000006   -0.00000006
     atom    5 type  1   force =    -0.00000006    0.00000006    0.00000006
     atom    6 type  1   force =    -0.00000006    0.00000006   -0.00000006
     atom    7 type  1   force =    -0.00000006   -0.00000006    0.00000006
     atom    8 type  1   force =    -0.00000006   -0.00000006   -0.00000006
     atom    9 type  3   force =     0.00000000    0.00000000    0.00000000
     atom   10 type  3   force =     0.00000000    0.00000000    0.00000000
     atom   11 type  3   force =     0.00000000    0.00000000    0.00000000
     atom   12 type  3   force =     0.00000000    0.00000000    0.00000000
     atom   13 type  3   force =     0.00000000    0.00000000    0.00000000
     atom   14 type  3   force =     0.00000000    0.00000000    0.00000000
     atom   15 type  3   force =     0.00000000    0.00000000    0.00000000
     atom   16 type  3   force =     0.00000000    0.00000000    0.00000000
     atom   17 type  2   force =     0.00000000   -0.00000000   -0.00000383
     atom   18 type  2   force =     0.00000000   -0.00000000    0.00000383
     atom   19 type  2   force =     0.00000000    0.00000000   -0.00000611
     atom   20 type  2   force =     0.00000000    0.00000000    0.00000611
     atom   21 type  2   force =     0.00000000    0.00000000   -0.00000611
     atom   22 type  2   force =     0.00000000    0.00000000    0.00000611
     atom   23 type  2   force =     0.00000000    0.00000000   -0.00000301
     atom   24 type  2   force =     0.00000000   -0.00000000    0.00000301
     atom   25 type  2   force =     0.00000000   -0.00000383   -0.00000000
     atom   26 type  2   force =    -0.00000000   -0.00000611    0.00000000
     atom   27 type  2   force =     0.00000000    0.00000383    0.00000000
     atom   28 type  2   force =    -0.00000000    0.00000611   -0.00000000
     atom   29 type  2   force =    -0.00000000   -0.00000611   -0.00000000
     atom   30 type  2   force =     0.00000000   -0.00000301    0.00000000
     atom   31 type  2   force =    -0.00000000    0.00000611   -0.00000000
     atom   32 type  2   force =     0.00000000    0.00000301    0.00000000
     atom   33 type  2   force =    -0.00000383    0.00000000   -0.00000000
     atom   34 type  2   force =    -0.00000611    0.00000000    0.00000000
     atom   35 type  2   force =    -0.00000611    0.00000000    0.00000000
     atom   36 type  2   force =    -0.00000301    0.00000000    0.00000000
     atom   37 type  2   force =     0.00000383    0.00000000   -0.00000000
     atom   38 type  2   force =     0.00000611    0.00000000   -0.00000000
     atom   39 type  2   force =     0.00000611    0.00000000    0.00000000
     atom   40 type  2   force =     0.00000301   -0.00000000    0.00000000
     The non-local contrib.  to forces
     atom    1 type  1   force =     0.00000024    0.00000024    0.00000024
     atom    2 type  1   force =     0.00000024    0.00000024   -0.00000024
     atom    3 type  1   force =     0.00000024   -0.00000024    0.00000024
     atom    4 type  1   force =     0.00000024   -0.00000024   -0.00000024
     atom    5 type  1   force =    -0.00000024    0.00000024    0.00000024
     atom    6 type  1   force =    -0.00000024    0.00000024   -0.00000024
     atom    7 type  1   force =    -0.00000024   -0.00000024    0.00000024
     atom    8 type  1   force =    -0.00000024   -0.00000024   -0.00000024
     atom    9 type  3   force =     0.00000000    0.00000000    0.00000000
     atom   10 type  3   force =     0.00000000    0.00000000    0.00000000
     atom   11 type  3   force =     0.00000000    0.00000000    0.00000000
     atom   12 type  3   force =     0.00000000    0.00000000    0.00000000
     atom   13 type  3   force =     0.00000000    0.00000000    0.00000000
     atom   14 type  3   force =     0.00000000    0.00000000    0.00000000
     atom   15 type  3   force =     0.00000000    0.00000000    0.00000000
     atom   16 type  3   force =     0.00000000    0.00000000    0.00000000
     atom   17 type  2   force =     0.00000000    0.00000000    0.00000237
     atom   18 type  2   force =     0.00000000    0.00000000   -0.00000237
     atom   19 type  2   force =     0.00000000    0.00000000   -0.00000247
     atom   20 type  2   force =     0.00000000    0.00000000    0.00000247
     atom   21 type  2   force =     0.00000000    0.00000000   -0.00000247
     atom   22 type  2   force =     0.00000000    0.00000000    0.00000247
     atom   23 type  2   force =     0.00000000    0.00000000    0.00000368
     atom   24 type  2   force =     0.00000000    0.00000000   -0.00000368
     atom   25 type  2   force =     0.00000000    0.00000237    0.00000000
     atom   26 type  2   force =     0.00000000   -0.00000247    0.00000000
     atom   27 type  2   force =     0.00000000   -0.00000237    0.00000000
     atom   28 type  2   force =     0.00000000    0.00000247    0.00000000
     atom   29 type  2   force =     0.00000000   -0.00000247    0.00000000
     atom   30 type  2   force =     0.00000000    0.00000368   -0.00000000
     atom   31 type  2   force =     0.00000000    0.00000247    0.00000000
     atom   32 type  2   force =     0.00000000   -0.00000368    0.00000000
     atom   33 type  2   force =     0.00000237    0.00000000   -0.00000000
     atom   34 type  2   force =    -0.00000247    0.00000000    0.00000000
     atom   35 type  2   force =    -0.00000247    0.00000000    0.00000000
     atom   36 type  2   force =     0.00000368    0.00000000    0.00000000
     atom   37 type  2   force =    -0.00000237    0.00000000   -0.00000000
     atom   38 type  2   force =     0.00000247    0.00000000    0.00000000
     atom   39 type  2   force =     0.00000247    0.00000000    0.00000000
     atom   40 type  2   force =    -0.00000368    0.00000000    0.00000000
     The ionic contribution  to forces
     atom    1 type  1   force =    -0.00004935   -0.00004935   -0.00004935
     atom    2 type  1   force =    -0.00004935   -0.00004935    0.00004935
     atom    3 type  1   force =    -0.00004935    0.00004935   -0.00004935
     atom    4 type  1   force =    -0.00004935    0.00004935    0.00004935
     atom    5 type  1   force =     0.00004935   -0.00004935   -0.00004935
     atom    6 type  1   force =     0.00004935   -0.00004935    0.00004935
     atom    7 type  1   force =     0.00004935    0.00004935   -0.00004935
     atom    8 type  1   force =     0.00004935    0.00004935    0.00004935
     atom    9 type  3   force =    -0.00000000   -0.00000000   -0.00000000
     atom   10 type  3   force =     0.00000000    0.00000000    0.00000000
     atom   11 type  3   force =     0.00000000    0.00000000    0.00000000
     atom   12 type  3   force =    -0.00000000    0.00000000    0.00000000
     atom   13 type  3   force =     0.00000000    0.00000000    0.00000000
     atom   14 type  3   force =     0.00000000   -0.00000000    0.00000000
     atom   15 type  3   force =     0.00000000    0.00000000   -0.00000000
     atom   16 type  3   force =     0.00000000    0.00000000    0.00000000
     atom   17 type  2   force =    -0.00000000   -0.00000000   -0.00020855
     atom   18 type  2   force =    -0.00000000   -0.00000000    0.00020855
     atom   19 type  2   force =    -0.00000000    0.00000000   -0.00021075
     atom   20 type  2   force =    -0.00000000    0.00000000    0.00021075
     atom   21 type  2   force =     0.00000000   -0.00000000   -0.00021075
     atom   22 type  2   force =     0.00000000   -0.00000000    0.00021075
     atom   23 type  2   force =     0.00000000    0.00000000   -0.00021115
     atom   24 type  2   force =    -0.00000000   -0.00000000    0.00021115
     atom   25 type  2   force =    -0.00000000   -0.00020855   -0.00000000
     atom   26 type  2   force =    -0.00000000   -0.00021075    0.00000000
     atom   27 type  2   force =    -0.00000000    0.00020855   -0.00000000
     atom   28 type  2   force =    -0.00000000    0.00021075    0.00000000
     atom   29 type  2   force =     0.00000000   -0.00021075   -0.00000000
     atom   30 type  2   force =     0.00000000   -0.00021115    0.00000000
     atom   31 type  2   force =     0.00000000    0.00021075   -0.00000000
     atom   32 type  2   force =    -0.00000000    0.00021115   -0.00000000
     atom   33 type  2   force =    -0.00020855   -0.00000000   -0.00000000
     atom   34 type  2   force =    -0.00021075   -0.00000000    0.00000000
     atom   35 type  2   force =    -0.00021075    0.00000000   -0.00000000
     atom   36 type  2   force =    -0.00021115    0.00000000    0.00000000
     atom   37 type  2   force =     0.00020855   -0.00000000   -0.00000000
     atom   38 type  2   force =     0.00021075   -0.00000000    0.00000000
     atom   39 type  2   force =     0.00021075    0.00000000   -0.00000000
     atom   40 type  2   force =     0.00021115   -0.00000000   -0.00000000
     The local contribution  to forces
     atom    1 type  1   force =     0.00004681    0.00004681    0.00004681
     atom    2 type  1   force =     0.00004681    0.00004681   -0.00004681
     atom    3 type  1   force =     0.00004681   -0.00004681    0.00004681
     atom    4 type  1   force =     0.00004681   -0.00004681   -0.00004681
     atom    5 type  1   force =    -0.00004681    0.00004681    0.00004681
     atom    6 type  1   force =    -0.00004681    0.00004681   -0.00004681
     atom    7 type  1   force =    -0.00004681   -0.00004681    0.00004681
     atom    8 type  1   force =    -0.00004681   -0.00004681   -0.00004681
     atom    9 type  3   force =     0.00000000    0.00000000    0.00000000
     atom   10 type  3   force =    -0.00000000    0.00000000    0.00000000
     atom   11 type  3   force =    -0.00000000    0.00000000    0.00000000
     atom   12 type  3   force =     0.00000000    0.00000000    0.00000000
     atom   13 type  3   force =     0.00000000    0.00000000    0.00000000
     atom   14 type  3   force =     0.00000000    0.00000000    0.00000000
     atom   15 type  3   force =     0.00000000    0.00000000    0.00000000
     atom   16 type  3   force =     0.00000000    0.00000000    0.00000000
     atom   17 type  2   force =    -0.00000000   -0.00000000    0.00021254
     atom   18 type  2   force =     0.00000000   -0.00000000   -0.00021254
     atom   19 type  2   force =     0.00000000    0.00000000    0.00018693
     atom   20 type  2   force =     0.00000000    0.00000000   -0.00018693
     atom   21 type  2   force =     0.00000000   -0.00000000    0.00018693
     atom   22 type  2   force =     0.00000000   -0.00000000   -0.00018693
     atom   23 type  2   force =     0.00000000    0.00000000    0.00022086
     atom   24 type  2   force =    -0.00000000   -0.00000000   -0.00022086
     atom   25 type  2   force =     0.00000000    0.00021254    0.00000000
     atom   26 type  2   force =    -0.00000000    0.00018693   -0.00000000
     atom   27 type  2   force =    -0.00000000   -0.00021254    0.00000000
     atom   28 type  2   force =    -0.00000000   -0.00018693    0.00000000
     atom   29 type  2   force =     0.00000000    0.00018693    0.00000000
     atom   30 type  2   force =     0.00000000    0.00022086    0.00000000
     atom   31 type  2   force =     0.00000000   -0.00018693    0.00000000
     atom   32 type  2   force =     0.00000000   -0.00022086   -0.00000000
     atom   33 type  2   force =     0.00021254    0.00000000   -0.00000000
     atom   34 type  2   force =     0.00018693   -0.00000000   -0.00000000
     atom   35 type  2   force =     0.00018693   -0.00000000   -0.00000000
     atom   36 type  2   force =     0.00022086    0.00000000    0.00000000
     atom   37 type  2   force =    -0.00021254   -0.00000000   -0.00000000
     atom   38 type  2   force =    -0.00018693   -0.00000000    0.00000000
     atom   39 type  2   force =    -0.00018693    0.00000000    0.00000000
     atom   40 type  2   force =    -0.00022086    0.00000000   -0.00000000
     The core correction contribution to forces
     atom    1 type  1   force =    -0.00000004   -0.00000004   -0.00000004
     atom    2 type  1   force =    -0.00000004   -0.00000004    0.00000004
     atom    3 type  1   force =    -0.00000004    0.00000004   -0.00000004
     atom    4 type  1   force =    -0.00000004    0.00000004    0.00000004
     atom    5 type  1   force =     0.00000004   -0.00000004   -0.00000004
     atom    6 type  1   force =     0.00000004   -0.00000004    0.00000004
     atom    7 type  1   force =     0.00000004    0.00000004   -0.00000004
     atom    8 type  1   force =     0.00000004    0.00000004    0.00000004
     atom    9 type  3   force =     0.00000000    0.00000000    0.00000000
     atom   10 type  3   force =    -0.00000000   -0.00000000    0.00000000
     atom   11 type  3   force =    -0.00000000    0.00000000   -0.00000000
     atom   12 type  3   force =     0.00000000   -0.00000000   -0.00000000
     atom   13 type  3   force =     0.00000000   -0.00000000   -0.00000000
     atom   14 type  3   force =    -0.00000000    0.00000000   -0.00000000
     atom   15 type  3   force =    -0.00000000   -0.00000000    0.00000000
     atom   16 type  3   force =     0.00000000    0.00000000    0.00000000
     atom   17 type  2   force =     0.00000000    0.00000000    0.00000054
     atom   18 type  2   force =     0.00000000    0.00000000   -0.00000054
     atom   19 type  2   force =     0.00000000   -0.00000000    0.00000021
     atom   20 type  2   force =     0.00000000   -0.00000000   -0.00000021
     atom   21 type  2   force =    -0.00000000    0.00000000    0.00000021
     atom   22 type  2   force =    -0.00000000    0.00000000   -0.00000021
     atom   23 type  2   force =    -0.00000000   -0.00000000    0.00000104
     atom   24 type  2   force =     0.00000000    0.00000000   -0.00000104
     atom   25 type  2   force =     0.00000000    0.00000054    0.00000000
     atom   26 type  2   force =     0.00000000    0.00000021   -0.00000000
     atom   27 type  2   force =     0.00000000   -0.00000054    0.00000000
     atom   28 type  2   force =     0.00000000   -0.00000021   -0.00000000
     atom   29 type  2   force =    -0.00000000    0.00000021    0.00000000
     atom   30 type  2   force =    -0.00000000    0.00000104   -0.00000000
     atom   31 type  2   force =    -0.00000000   -0.00000021    0.00000000
     atom   32 type  2   force =     0.00000000   -0.00000104    0.00000000
     atom   33 type  2   force =     0.00000054    0.00000000    0.00000000
     atom   34 type  2   force =     0.00000021    0.00000000   -0.00000000
     atom   35 type  2   force =     0.00000021   -0.00000000    0.00000000
     atom   36 type  2   force =     0.00000104   -0.00000000   -0.00000000
     atom   37 type  2   force =    -0.00000054    0.00000000    0.00000000
     atom   38 type  2   force =    -0.00000021    0.00000000   -0.00000000
     atom   39 type  2   force =    -0.00000021   -0.00000000    0.00000000
     atom   40 type  2   force =    -0.00000104    0.00000000    0.00000000
     The Hubbard contrib.    to forces
     atom    1 type  1   force =     0.00000000    0.00000000    0.00000000
     atom    2 type  1   force =     0.00000000    0.00000000    0.00000000
     atom    3 type  1   force =     0.00000000    0.00000000    0.00000000
     atom    4 type  1   force =     0.00000000    0.00000000    0.00000000
     atom    5 type  1   force =     0.00000000    0.00000000    0.00000000
     atom    6 type  1   force =     0.00000000    0.00000000    0.00000000
     atom    7 type  1   force =     0.00000000    0.00000000    0.00000000
     atom    8 type  1   force =     0.00000000    0.00000000    0.00000000
     atom    9 type  3   force =     0.00000000    0.00000000    0.00000000
     atom   10 type  3   force =     0.00000000    0.00000000    0.00000000
     atom   11 type  3   force =     0.00000000    0.00000000    0.00000000
     atom   12 type  3   force =     0.00000000    0.00000000    0.00000000
     atom   13 type  3   force =     0.00000000    0.00000000    0.00000000
     atom   14 type  3   force =     0.00000000    0.00000000    0.00000000
     atom   15 type  3   force =     0.00000000    0.00000000    0.00000000
     atom   16 type  3   force =     0.00000000    0.00000000    0.00000000
     atom   17 type  2   force =     0.00000000    0.00000000    0.00000000
     atom   18 type  2   force =     0.00000000    0.00000000    0.00000000
     atom   19 type  2   force =     0.00000000    0.00000000    0.00000000
     atom   20 type  2   force =     0.00000000    0.00000000    0.00000000
     atom   21 type  2   force =     0.00000000    0.00000000    0.00000000
     atom   22 type  2   force =     0.00000000    0.00000000    0.00000000
     atom   23 type  2   force =     0.00000000    0.00000000    0.00000000
     atom   24 type  2   force =     0.00000000    0.00000000    0.00000000
     atom   25 type  2   force =     0.00000000    0.00000000    0.00000000
     atom   26 type  2   force =     0.00000000    0.00000000    0.00000000
     atom   27 type  2   force =     0.00000000    0.00000000    0.00000000
     atom   28 type  2   force =     0.00000000    0.00000000    0.00000000
     atom   29 type  2   force =     0.00000000    0.00000000    0.00000000
     atom   30 type  2   force =     0.00000000    0.00000000    0.00000000
     atom   31 type  2   force =     0.00000000    0.00000000    0.00000000
     atom   32 type  2   force =     0.00000000    0.00000000    0.00000000
     atom   33 type  2   force =     0.00000000    0.00000000    0.00000000
     atom   34 type  2   force =     0.00000000    0.00000000    0.00000000
     atom   35 type  2   force =     0.00000000    0.00000000    0.00000000
     atom   36 type  2   force =     0.00000000    0.00000000    0.00000000
     atom   37 type  2   force =     0.00000000    0.00000000    0.00000000
     atom   38 type  2   force =     0.00000000    0.00000000    0.00000000
     atom   39 type  2   force =     0.00000000    0.00000000    0.00000000
     atom   40 type  2   force =     0.00000000    0.00000000    0.00000000
     The SCF correction term to forces
     atom    1 type  1   force =     0.00000239    0.00000239    0.00000239
     atom    2 type  1   force =     0.00000239    0.00000239   -0.00000239
     atom    3 type  1   force =     0.00000239   -0.00000239    0.00000239
     atom    4 type  1   force =     0.00000239   -0.00000239   -0.00000239
     atom    5 type  1   force =    -0.00000239    0.00000239    0.00000239
     atom    6 type  1   force =    -0.00000239    0.00000239   -0.00000239
     atom    7 type  1   force =    -0.00000239   -0.00000239    0.00000239
     atom    8 type  1   force =    -0.00000239   -0.00000239   -0.00000239
     atom    9 type  3   force =     0.00000000   -0.00000000    0.00000000
     atom   10 type  3   force =     0.00000000   -0.00000000    0.00000000
     atom   11 type  3   force =     0.00000000   -0.00000000    0.00000000
     atom   12 type  3   force =     0.00000000   -0.00000000    0.00000000
     atom   13 type  3   force =    -0.00000000   -0.00000000   -0.00000000
     atom   14 type  3   force =    -0.00000000   -0.00000000   -0.00000000
     atom   15 type  3   force =    -0.00000000   -0.00000000    0.00000000
     atom   16 type  3   force =    -0.00000000   -0.00000000    0.00000000
     atom   17 type  2   force =    -0.00000000   -0.00000000   -0.00001073
     atom   18 type  2   force =    -0.00000000   -0.00000000    0.00001073
     atom   19 type  2   force =    -0.00000000   -0.00000000    0.00001996
     atom   20 type  2   force =    -0.00000000   -0.00000000   -0.00001996
     atom   21 type  2   force =    -0.00000000   -0.00000000    0.00001996
     atom   22 type  2   force =    -0.00000000   -0.00000000   -0.00001996
     atom   23 type  2   force =    -0.00000000    0.00000000   -0.00001744
     atom   24 type  2   force =    -0.00000000    0.00000000    0.00001744
     atom   25 type  2   force =    -0.00000000   -0.00001073   -0.00000000
     atom   26 type  2   force =    -0.00000000    0.00001996   -0.00000000
     atom   27 type  2   force =    -0.00000000    0.00001073   -0.00000000
     atom   28 type  2   force =    -0.00000000   -0.00001996   -0.00000000
     atom   29 type  2   force =    -0.00000000    0.00001996   -0.00000000
     atom   30 type  2   force =     0.00000000   -0.00001744    0.00000000
     atom   31 type  2   force =    -0.00000000   -0.00001996    0.00000000
     atom   32 type  2   force =    -0.00000000    0.00001744    0.00000000
     atom   33 type  2   force =    -0.00001073   -0.00000000   -0.00000000
     atom   34 type  2   force =     0.00001996   -0.00000000   -0.00000000
     atom   35 type  2   force =     0.00001996   -0.00000000   -0.00000000
     atom   36 type  2   force =    -0.00001744    0.00000000    0.00000000
     atom   37 type  2   force =     0.00001073   -0.00000000   -0.00000000
     atom   38 type  2   force =    -0.00001996   -0.00000000   -0.00000000
     atom   39 type  2   force =    -0.00001996    0.00000000    0.00000000
     atom   40 type  2   force =     0.00001744    0.00000000    0.00000000

     Total force =     0.000024     Total SCF correction =     0.000086
     SCF correction compared to forces is large: reduce conv_thr to get better values


     Computing stress (Cartesian axis) and pressure

          total   stress  (Ry/bohr**3)                   (kbar)     P=       -0.72
  -0.00000489   0.00000000   0.00000000           -0.72        0.00        0.00
   0.00000000  -0.00000489   0.00000000            0.00       -0.72        0.00
   0.00000000   0.00000000  -0.00000489            0.00        0.00       -0.72

     kinetic stress (kbar)   3454.15      0.00      0.00
                                0.00   3454.15      0.00
                                0.00      0.00   3454.15

     local   stress (kbar)   -370.85     -0.00     -0.00
                               -0.00   -370.85      0.00
                               -0.00      0.00   -370.85

     nonloc. stress (kbar)    890.03      0.00      0.00
                                0.00    890.03      0.00
                                0.00      0.00    890.03

     hartree stress (kbar)   1920.80     -0.00      0.00
                               -0.00   1920.80     -0.00
                                0.00     -0.00   1920.80

     exc-cor stress (kbar)  12007.59      0.00      0.00
                                0.00  12007.59     -0.00
                                0.00     -0.00  12007.59

     corecor stress (kbar) -13606.41     -0.00     -0.00
                               -0.00 -13606.41      0.00
                               -0.00     -0.00 -13606.41

     ewald   stress (kbar)  -4296.03     -0.00      0.00
                               -0.00  -4296.03     -0.00
                                0.00     -0.00  -4296.03

     hubbard stress (kbar)      0.00      0.00      0.00
                                0.00      0.00      0.00
                                0.00      0.00      0.00

     DFT-D   stress (kbar)      0.00      0.00      0.00
                                0.00      0.00      0.00
                                0.00      0.00      0.00

     XDM     stress (kbar)      0.00      0.00      0.00
                                0.00      0.00      0.00
                                0.00      0.00      0.00

     dft-nl  stress (kbar)      0.00      0.00      0.00
                                0.00      0.00      0.00
                                0.00      0.00      0.00

     TS-vdW  stress (kbar)      0.00      0.00      0.00
                                0.00      0.00      0.00
                                0.00      0.00      0.00



     Writing output data file ../../out/aiida.save/

     init_run     :    257.61s CPU    260.77s WALL (       1 calls)
     electrons    :   8904.86s CPU   8971.34s WALL (       1 calls)
     forces       :    177.48s CPU    180.26s WALL (       1 calls)
     stress       :    261.84s CPU    269.46s WALL (       1 calls)

     Called by init_run:
     wfcinit      :    236.84s CPU    237.51s WALL (       1 calls)
     wfcinit:atom :      0.36s CPU      0.54s WALL (       4 calls)
     wfcinit:wfcr :    233.86s CPU    234.12s WALL (       4 calls)
     potinit      :      4.08s CPU      4.30s WALL (       1 calls)
     hinit0       :      1.69s CPU      1.75s WALL (       1 calls)

     Called by electrons:
     c_bands      :   7867.05s CPU   7880.22s WALL (      12 calls)
     sum_band     :    838.66s CPU    867.53s WALL (      12 calls)
     v_of_rho     :     19.41s CPU     20.84s WALL (      12 calls)
     v_h          :      1.23s CPU      1.24s WALL (      12 calls)
     v_xc         :     21.21s CPU     22.91s WALL (      14 calls)
     newd         :    168.41s CPU    193.70s WALL (      12 calls)
     PAW_pot      :     24.56s CPU     24.57s WALL (      12 calls)
     mix_rho      :      2.83s CPU      2.85s WALL (      12 calls)

     Called by c_bands:
     init_us_2    :      9.49s CPU      9.56s WALL (     108 calls)
     cegterg      :   7818.82s CPU   7831.95s WALL (      49 calls)

     Called by sum_band:
     sum_band:wei :      0.01s CPU      0.01s WALL (      12 calls)
     sum_band:loo :    571.19s CPU    571.37s WALL (      12 calls)
     sum_band:buf :      1.38s CPU      1.38s WALL (      48 calls)
     sum_band:ini :      4.17s CPU      4.17s WALL (      48 calls)
     sum_band:cal :    394.15s CPU    394.20s WALL (      48 calls)
     sum_band:bec :      0.14s CPU      0.14s WALL (      48 calls)
     addusdens    :    264.88s CPU    293.56s WALL (      12 calls)
     addusd:skk   :      2.85s CPU      4.86s WALL (      36 calls)
     addusd:dgemm :    166.95s CPU    188.73s WALL (      36 calls)
     addusd:qvan2 :     89.81s CPU     89.83s WALL (      36 calls)

     Called by *egterg:
     cdiaghg      :     57.80s CPU     57.81s WALL (     345 calls)
     cegterg:over :   1032.96s CPU   1033.09s WALL (     300 calls)
     cegterg:upda :    665.64s CPU    667.62s WALL (     300 calls)
     cegterg:last :   1535.44s CPU   1535.61s WALL (     102 calls)
     h_psi        :   3123.24s CPU   3127.43s WALL (     353 calls)
     s_psi        :   1194.28s CPU   1194.43s WALL (     353 calls)
     g_psi        :     11.11s CPU     11.11s WALL (     300 calls)

     Called by h_psi:
     h_psi:calbec :   1103.70s CPU   1103.85s WALL (     353 calls)
     vloc_psi     :    820.76s CPU    821.41s WALL (     353 calls)
     add_vuspsi   :   1194.48s CPU   1194.61s WALL (     353 calls)

     General routines
     calbec       :   1660.71s CPU   1660.95s WALL (     421 calls)
     fft          :     12.76s CPU     12.76s WALL (     180 calls)
     ffts         :      0.55s CPU      0.55s WALL (      24 calls)
     fftw         :    799.70s CPU    800.21s WALL (   66806 calls)
     interpolate  :      1.44s CPU      1.45s WALL (      12 calls)

     Parallel routines

     PAW routines
     PAW_pot      :     24.56s CPU     24.57s WALL (      12 calls)
     PAW_symme    :      0.06s CPU      0.06s WALL (      24 calls)

     PWSCF        :      2h40m CPU      2h41m WALL


   This run was terminated on:   0:23: 6   2Apr2024            

=------------------------------------------------------------------------------=
   JOB DONE.
=------------------------------------------------------------------------------=
