### Running on host: fes33

     Program PWSCF v.6.7MaX starts on  1Apr2024 at 16:10: 3 

     This program is part of the open-source Quantum ESPRESSO suite
     for quantum simulation of materials; please cite
         "P. Giannozzi et al., J. Phys.:Condens. Matter 21 395502 (2009);
         "P. Giannozzi et al., J. Phys.:Condens. Matter 29 465901 (2017);
          URL http://www.quantum-espresso.org", 
     in publications or presentations arising from this work. More details at
     http://www.quantum-espresso.org/quote

     Parallel version (MPI), running on     1 processors

     MPI processes distributed on     1 nodes
     Reading input from pwscf_ecutwfc-24.in

     Current dimensions of program PWSCF are:
     Max number of different atomic species (ntypx) = 10
     Max number of k-points (npk) =  40000
     Max angular momentum in pseudopotentials (lmaxx) =  3
     file Pb.pbe-dn-kjpaw_psl.0.2.2.UPF: wavefunction(s)  6S renormalized

     Subspace diagonalization in iterative solution of the eigenvalue problem:
     a serial algorithm will be used

     Found symmetry operation: I + (  0.0000  0.0000  0.5000)
     This is a supercell, fractional translations are disabled
     Message from routine setup:
     using ibrav=0 with symmetry is DISCOURAGED, use correct ibrav instead

     G-vector sticks info
     --------------------
     sticks:   dense  smooth     PW     G-vecs:    dense   smooth      PW
     Sum       14817    4445   1185              1356433   222943   30551



     bravais-lattice index     =            0
     lattice parameter (alat)  =      24.1188  a.u.
     unit-cell volume          =   14030.3801 (a.u.)^3
     number of atoms/cell      =           40
     number of atomic types    =            3
     number of electrons       =       352.00
     number of Kohn-Sham states=          211
     kinetic-energy cutoff     =      24.0000  Ry
     charge density cutoff     =     320.0000  Ry
     scf convergence threshold =      8.0E-09
     mixing beta               =       0.4000
     number of iterations used =            8  plain     mixing
     Exchange-correlation= SLA  PW   PBX  PBC
                           (   1   4   3   4   0   0   0)

     celldm(1)=  24.118843  celldm(2)=   0.000000  celldm(3)=   0.000000
     celldm(4)=   0.000000  celldm(5)=   0.000000  celldm(6)=   0.000000

     crystal axes: (cart. coord. in units of alat)
               a(1) = (   1.000000   0.000000   0.000000 )  
               a(2) = (   0.000000   1.000000   0.000000 )  
               a(3) = (   0.000000   0.000000   1.000000 )  

     reciprocal axes: (cart. coord. in units 2 pi/alat)
               b(1) = (  1.000000  0.000000  0.000000 )  
               b(2) = (  0.000000  1.000000  0.000000 )  
               b(3) = (  0.000000  0.000000  1.000000 )  


     PseudoPot. # 1 for Cs read from file:
     ../../pseudo/Cs_pbe_v1.uspp.F.UPF
     MD5 check sum: 3476d69cb178dfad3ffaa59df4e07ca4
     Pseudo is Ultrasoft + core correction, Zval =  9.0
     Generated by new atomic code, or converted to UPF format
     Using radial grid of  905 points,  6 beta functions with: 
                l(1) =   0
                l(2) =   0
                l(3) =   1
                l(4) =   1
                l(5) =   2
                l(6) =   2
     Q(r) pseudized with  6 coefficients,  rinner =    1.500   1.500   1.500
                                                       1.500   1.500

     PseudoPot. # 2 for I  read from file:
     ../../pseudo/I.pbe-n-kjpaw_psl.0.2.UPF
     MD5 check sum: d4ef18d9c8f18dc85e5843bca1e50dc0
     Pseudo is Projector augmented-wave + core cor, Zval =  7.0
     Generated using "atomic" code by A. Dal Corso  v.5.0.99 svn rev. 10869
     Shape of augmentation charge: PSQ
     Using radial grid of 1247 points,  4 beta functions with: 
                l(1) =   0
                l(2) =   0
                l(3) =   1
                l(4) =   1
     Q(r) pseudized with 0 coefficients 


     PseudoPot. # 3 for Pb read from file:
     ../../pseudo/Pb.pbe-dn-kjpaw_psl.0.2.2.UPF
     MD5 check sum: 9d431e6316058b74ade52399a6cf67da
     Pseudo is Projector augmented-wave + core cor, Zval = 14.0
     Generated using "atomic" code by A. Dal Corso  v.5.0.99 svn rev. 10869
     Shape of augmentation charge: PSQ
     Using radial grid of 1281 points,  6 beta functions with: 
                l(1) =   0
                l(2) =   0
                l(3) =   1
                l(4) =   1
                l(5) =   2
                l(6) =   2
     Q(r) pseudized with 0 coefficients 


     atomic species   valence    mass     pseudopotential
        Cs             9.00   132.90545     Cs( 1.00)
        I              7.00   126.90447     I ( 1.00)
        Pb            14.00   207.20000     Pb( 1.00)

     48 Sym. Ops., with inversion, found


                                    s                        frac. trans.

      isym =  1     identity                                     

 cryst.   s( 1) = (     1          0          0      )
                  (     0          1          0      )
                  (     0          0          1      )

 cart.    s( 1) = (  1.0000000  0.0000000  0.0000000 )
                  (  0.0000000  1.0000000  0.0000000 )
                  (  0.0000000  0.0000000  1.0000000 )


      isym =  2     180 deg rotation - cart. axis [0,0,1]        

 cryst.   s( 2) = (    -1          0          0      )
                  (     0         -1          0      )
                  (     0          0          1      )

 cart.    s( 2) = ( -1.0000000  0.0000000  0.0000000 )
                  (  0.0000000 -1.0000000  0.0000000 )
                  (  0.0000000  0.0000000  1.0000000 )


      isym =  3     180 deg rotation - cart. axis [0,1,0]        

 cryst.   s( 3) = (    -1          0          0      )
                  (     0          1          0      )
                  (     0          0         -1      )

 cart.    s( 3) = ( -1.0000000  0.0000000  0.0000000 )
                  (  0.0000000  1.0000000  0.0000000 )
                  (  0.0000000  0.0000000 -1.0000000 )


      isym =  4     180 deg rotation - cart. axis [1,0,0]        

 cryst.   s( 4) = (     1          0          0      )
                  (     0         -1          0      )
                  (     0          0         -1      )

 cart.    s( 4) = (  1.0000000  0.0000000  0.0000000 )
                  (  0.0000000 -1.0000000  0.0000000 )
                  (  0.0000000  0.0000000 -1.0000000 )


      isym =  5     180 deg rotation - cart. axis [1,1,0]        

 cryst.   s( 5) = (     0          1          0      )
                  (     1          0          0      )
                  (     0          0         -1      )

 cart.    s( 5) = (  0.0000000  1.0000000  0.0000000 )
                  (  1.0000000  0.0000000  0.0000000 )
                  (  0.0000000  0.0000000 -1.0000000 )


      isym =  6     180 deg rotation - cart. axis [1,-1,0]       

 cryst.   s( 6) = (     0         -1          0      )
                  (    -1          0          0      )
                  (     0          0         -1      )

 cart.    s( 6) = (  0.0000000 -1.0000000  0.0000000 )
                  ( -1.0000000  0.0000000  0.0000000 )
                  (  0.0000000  0.0000000 -1.0000000 )


      isym =  7      90 deg rotation - cart. axis [0,0,-1]       

 cryst.   s( 7) = (     0         -1          0      )
                  (     1          0          0      )
                  (     0          0          1      )

 cart.    s( 7) = (  0.0000000  1.0000000  0.0000000 )
                  ( -1.0000000  0.0000000  0.0000000 )
                  (  0.0000000  0.0000000  1.0000000 )


      isym =  8      90 deg rotation - cart. axis [0,0,1]        

 cryst.   s( 8) = (     0          1          0      )
                  (    -1          0          0      )
                  (     0          0          1      )

 cart.    s( 8) = (  0.0000000 -1.0000000  0.0000000 )
                  (  1.0000000  0.0000000  0.0000000 )
                  (  0.0000000  0.0000000  1.0000000 )


      isym =  9     180 deg rotation - cart. axis [1,0,1]        

 cryst.   s( 9) = (     0          0          1      )
                  (     0         -1          0      )
                  (     1          0          0      )

 cart.    s( 9) = (  0.0000000  0.0000000  1.0000000 )
                  (  0.0000000 -1.0000000  0.0000000 )
                  (  1.0000000  0.0000000  0.0000000 )


      isym = 10     180 deg rotation - cart. axis [-1,0,1]       

 cryst.   s(10) = (     0          0         -1      )
                  (     0         -1          0      )
                  (    -1          0          0      )

 cart.    s(10) = (  0.0000000  0.0000000 -1.0000000 )
                  (  0.0000000 -1.0000000  0.0000000 )
                  ( -1.0000000  0.0000000  0.0000000 )


      isym = 11      90 deg rotation - cart. axis [0,1,0]        

 cryst.   s(11) = (     0          0         -1      )
                  (     0          1          0      )
                  (     1          0          0      )

 cart.    s(11) = (  0.0000000  0.0000000  1.0000000 )
                  (  0.0000000  1.0000000  0.0000000 )
                  ( -1.0000000  0.0000000  0.0000000 )


      isym = 12      90 deg rotation - cart. axis [0,-1,0]       

 cryst.   s(12) = (     0          0          1      )
                  (     0          1          0      )
                  (    -1          0          0      )

 cart.    s(12) = (  0.0000000  0.0000000 -1.0000000 )
                  (  0.0000000  1.0000000  0.0000000 )
                  (  1.0000000  0.0000000  0.0000000 )


      isym = 13     180 deg rotation - cart. axis [0,1,1]        

 cryst.   s(13) = (    -1          0          0      )
                  (     0          0          1      )
                  (     0          1          0      )

 cart.    s(13) = ( -1.0000000  0.0000000  0.0000000 )
                  (  0.0000000  0.0000000  1.0000000 )
                  (  0.0000000  1.0000000  0.0000000 )


      isym = 14     180 deg rotation - cart. axis [0,1,-1]       

 cryst.   s(14) = (    -1          0          0      )
                  (     0          0         -1      )
                  (     0         -1          0      )

 cart.    s(14) = ( -1.0000000  0.0000000  0.0000000 )
                  (  0.0000000  0.0000000 -1.0000000 )
                  (  0.0000000 -1.0000000  0.0000000 )


      isym = 15      90 deg rotation - cart. axis [-1,0,0]       

 cryst.   s(15) = (     1          0          0      )
                  (     0          0         -1      )
                  (     0          1          0      )

 cart.    s(15) = (  1.0000000  0.0000000  0.0000000 )
                  (  0.0000000  0.0000000  1.0000000 )
                  (  0.0000000 -1.0000000  0.0000000 )


      isym = 16      90 deg rotation - cart. axis [1,0,0]        

 cryst.   s(16) = (     1          0          0      )
                  (     0          0          1      )
                  (     0         -1          0      )

 cart.    s(16) = (  1.0000000  0.0000000  0.0000000 )
                  (  0.0000000  0.0000000 -1.0000000 )
                  (  0.0000000  1.0000000  0.0000000 )


      isym = 17     120 deg rotation - cart. axis [-1,-1,-1]     

 cryst.   s(17) = (     0          0          1      )
                  (     1          0          0      )
                  (     0          1          0      )

 cart.    s(17) = (  0.0000000  1.0000000  0.0000000 )
                  (  0.0000000  0.0000000  1.0000000 )
                  (  1.0000000  0.0000000  0.0000000 )


      isym = 18     120 deg rotation - cart. axis [-1,1,1]       

 cryst.   s(18) = (     0          0         -1      )
                  (    -1          0          0      )
                  (     0          1          0      )

 cart.    s(18) = (  0.0000000 -1.0000000  0.0000000 )
                  (  0.0000000  0.0000000  1.0000000 )
                  ( -1.0000000  0.0000000  0.0000000 )


      isym = 19     120 deg rotation - cart. axis [1,1,-1]       

 cryst.   s(19) = (     0          0         -1      )
                  (     1          0          0      )
                  (     0         -1          0      )

 cart.    s(19) = (  0.0000000  1.0000000  0.0000000 )
                  (  0.0000000  0.0000000 -1.0000000 )
                  ( -1.0000000  0.0000000  0.0000000 )


      isym = 20     120 deg rotation - cart. axis [1,-1,1]       

 cryst.   s(20) = (     0          0          1      )
                  (    -1          0          0      )
                  (     0         -1          0      )

 cart.    s(20) = (  0.0000000 -1.0000000  0.0000000 )
                  (  0.0000000  0.0000000 -1.0000000 )
                  (  1.0000000  0.0000000  0.0000000 )


      isym = 21     120 deg rotation - cart. axis [1,1,1]        

 cryst.   s(21) = (     0          1          0      )
                  (     0          0          1      )
                  (     1          0          0      )

 cart.    s(21) = (  0.0000000  0.0000000  1.0000000 )
                  (  1.0000000  0.0000000  0.0000000 )
                  (  0.0000000  1.0000000  0.0000000 )


      isym = 22     120 deg rotation - cart. axis [-1,1,-1]      

 cryst.   s(22) = (     0         -1          0      )
                  (     0          0         -1      )
                  (     1          0          0      )

 cart.    s(22) = (  0.0000000  0.0000000  1.0000000 )
                  ( -1.0000000  0.0000000  0.0000000 )
                  (  0.0000000 -1.0000000  0.0000000 )


      isym = 23     120 deg rotation - cart. axis [1,-1,-1]      

 cryst.   s(23) = (     0         -1          0      )
                  (     0          0          1      )
                  (    -1          0          0      )

 cart.    s(23) = (  0.0000000  0.0000000 -1.0000000 )
                  ( -1.0000000  0.0000000  0.0000000 )
                  (  0.0000000  1.0000000  0.0000000 )


      isym = 24     120 deg rotation - cart. axis [-1,-1,1]      

 cryst.   s(24) = (     0          1          0      )
                  (     0          0         -1      )
                  (    -1          0          0      )

 cart.    s(24) = (  0.0000000  0.0000000 -1.0000000 )
                  (  1.0000000  0.0000000  0.0000000 )
                  (  0.0000000 -1.0000000  0.0000000 )


      isym = 25     inversion                                    

 cryst.   s(25) = (    -1          0          0      )
                  (     0         -1          0      )
                  (     0          0         -1      )

 cart.    s(25) = ( -1.0000000  0.0000000  0.0000000 )
                  (  0.0000000 -1.0000000  0.0000000 )
                  (  0.0000000  0.0000000 -1.0000000 )


      isym = 26     inv. 180 deg rotation - cart. axis [0,0,1]   

 cryst.   s(26) = (     1          0          0      )
                  (     0          1          0      )
                  (     0          0         -1      )

 cart.    s(26) = (  1.0000000  0.0000000  0.0000000 )
                  (  0.0000000  1.0000000  0.0000000 )
                  (  0.0000000  0.0000000 -1.0000000 )


      isym = 27     inv. 180 deg rotation - cart. axis [0,1,0]   

 cryst.   s(27) = (     1          0          0      )
                  (     0         -1          0      )
                  (     0          0          1      )

 cart.    s(27) = (  1.0000000  0.0000000  0.0000000 )
                  (  0.0000000 -1.0000000  0.0000000 )
                  (  0.0000000  0.0000000  1.0000000 )


      isym = 28     inv. 180 deg rotation - cart. axis [1,0,0]   

 cryst.   s(28) = (    -1          0          0      )
                  (     0          1          0      )
                  (     0          0          1      )

 cart.    s(28) = ( -1.0000000  0.0000000  0.0000000 )
                  (  0.0000000  1.0000000  0.0000000 )
                  (  0.0000000  0.0000000  1.0000000 )


      isym = 29     inv. 180 deg rotation - cart. axis [1,1,0]   

 cryst.   s(29) = (     0         -1          0      )
                  (    -1          0          0      )
                  (     0          0          1      )

 cart.    s(29) = (  0.0000000 -1.0000000  0.0000000 )
                  ( -1.0000000  0.0000000  0.0000000 )
                  (  0.0000000  0.0000000  1.0000000 )


      isym = 30     inv. 180 deg rotation - cart. axis [1,-1,0]  

 cryst.   s(30) = (     0          1          0      )
                  (     1          0          0      )
                  (     0          0          1      )

 cart.    s(30) = (  0.0000000  1.0000000  0.0000000 )
                  (  1.0000000  0.0000000  0.0000000 )
                  (  0.0000000  0.0000000  1.0000000 )


      isym = 31     inv.  90 deg rotation - cart. axis [0,0,-1]  

 cryst.   s(31) = (     0          1          0      )
                  (    -1          0          0      )
                  (     0          0         -1      )

 cart.    s(31) = (  0.0000000 -1.0000000  0.0000000 )
                  (  1.0000000  0.0000000  0.0000000 )
                  (  0.0000000  0.0000000 -1.0000000 )


      isym = 32     inv.  90 deg rotation - cart. axis [0,0,1]   

 cryst.   s(32) = (     0         -1          0      )
                  (     1          0          0      )
                  (     0          0         -1      )

 cart.    s(32) = (  0.0000000  1.0000000  0.0000000 )
                  ( -1.0000000  0.0000000  0.0000000 )
                  (  0.0000000  0.0000000 -1.0000000 )


      isym = 33     inv. 180 deg rotation - cart. axis [1,0,1]   

 cryst.   s(33) = (     0          0         -1      )
                  (     0          1          0      )
                  (    -1          0          0      )

 cart.    s(33) = (  0.0000000  0.0000000 -1.0000000 )
                  (  0.0000000  1.0000000  0.0000000 )
                  ( -1.0000000  0.0000000  0.0000000 )


      isym = 34     inv. 180 deg rotation - cart. axis [-1,0,1]  

 cryst.   s(34) = (     0          0          1      )
                  (     0          1          0      )
                  (     1          0          0      )

 cart.    s(34) = (  0.0000000  0.0000000  1.0000000 )
                  (  0.0000000  1.0000000  0.0000000 )
                  (  1.0000000  0.0000000  0.0000000 )


      isym = 35     inv.  90 deg rotation - cart. axis [0,1,0]   

 cryst.   s(35) = (     0          0          1      )
                  (     0         -1          0      )
                  (    -1          0          0      )

 cart.    s(35) = (  0.0000000  0.0000000 -1.0000000 )
                  (  0.0000000 -1.0000000  0.0000000 )
                  (  1.0000000  0.0000000  0.0000000 )


      isym = 36     inv.  90 deg rotation - cart. axis [0,-1,0]  

 cryst.   s(36) = (     0          0         -1      )
                  (     0         -1          0      )
                  (     1          0          0      )

 cart.    s(36) = (  0.0000000  0.0000000  1.0000000 )
                  (  0.0000000 -1.0000000  0.0000000 )
                  ( -1.0000000  0.0000000  0.0000000 )


      isym = 37     inv. 180 deg rotation - cart. axis [0,1,1]   

 cryst.   s(37) = (     1          0          0      )
                  (     0          0         -1      )
                  (     0         -1          0      )

 cart.    s(37) = (  1.0000000  0.0000000  0.0000000 )
                  (  0.0000000  0.0000000 -1.0000000 )
                  (  0.0000000 -1.0000000  0.0000000 )


      isym = 38     inv. 180 deg rotation - cart. axis [0,1,-1]  

 cryst.   s(38) = (     1          0          0      )
                  (     0          0          1      )
                  (     0          1          0      )

 cart.    s(38) = (  1.0000000  0.0000000  0.0000000 )
                  (  0.0000000  0.0000000  1.0000000 )
                  (  0.0000000  1.0000000  0.0000000 )


      isym = 39     inv.  90 deg rotation - cart. axis [-1,0,0]  

 cryst.   s(39) = (    -1          0          0      )
                  (     0          0          1      )
                  (     0         -1          0      )

 cart.    s(39) = ( -1.0000000  0.0000000  0.0000000 )
                  (  0.0000000  0.0000000 -1.0000000 )
                  (  0.0000000  1.0000000  0.0000000 )


      isym = 40     inv.  90 deg rotation - cart. axis [1,0,0]   

 cryst.   s(40) = (    -1          0          0      )
                  (     0          0         -1      )
                  (     0          1          0      )

 cart.    s(40) = ( -1.0000000  0.0000000  0.0000000 )
                  (  0.0000000  0.0000000  1.0000000 )
                  (  0.0000000 -1.0000000  0.0000000 )


      isym = 41     inv. 120 deg rotation - cart. axis [-1,-1,-1]

 cryst.   s(41) = (     0          0         -1      )
                  (    -1          0          0      )
                  (     0         -1          0      )

 cart.    s(41) = (  0.0000000 -1.0000000  0.0000000 )
                  (  0.0000000  0.0000000 -1.0000000 )
                  ( -1.0000000  0.0000000  0.0000000 )


      isym = 42     inv. 120 deg rotation - cart. axis [-1,1,1]  

 cryst.   s(42) = (     0          0          1      )
                  (     1          0          0      )
                  (     0         -1          0      )

 cart.    s(42) = (  0.0000000  1.0000000  0.0000000 )
                  (  0.0000000  0.0000000 -1.0000000 )
                  (  1.0000000  0.0000000  0.0000000 )


      isym = 43     inv. 120 deg rotation - cart. axis [1,1,-1]  

 cryst.   s(43) = (     0          0          1      )
                  (    -1          0          0      )
                  (     0          1          0      )

 cart.    s(43) = (  0.0000000 -1.0000000  0.0000000 )
                  (  0.0000000  0.0000000  1.0000000 )
                  (  1.0000000  0.0000000  0.0000000 )


      isym = 44     inv. 120 deg rotation - cart. axis [1,-1,1]  

 cryst.   s(44) = (     0          0         -1      )
                  (     1          0          0      )
                  (     0          1          0      )

 cart.    s(44) = (  0.0000000  1.0000000  0.0000000 )
                  (  0.0000000  0.0000000  1.0000000 )
                  ( -1.0000000  0.0000000  0.0000000 )


      isym = 45     inv. 120 deg rotation - cart. axis [1,1,1]   

 cryst.   s(45) = (     0         -1          0      )
                  (     0          0         -1      )
                  (    -1          0          0      )

 cart.    s(45) = (  0.0000000  0.0000000 -1.0000000 )
                  ( -1.0000000  0.0000000  0.0000000 )
                  (  0.0000000 -1.0000000  0.0000000 )


      isym = 46     inv. 120 deg rotation - cart. axis [-1,1,-1] 

 cryst.   s(46) = (     0          1          0      )
                  (     0          0          1      )
                  (    -1          0          0      )

 cart.    s(46) = (  0.0000000  0.0000000 -1.0000000 )
                  (  1.0000000  0.0000000  0.0000000 )
                  (  0.0000000  1.0000000  0.0000000 )


      isym = 47     inv. 120 deg rotation - cart. axis [1,-1,-1] 

 cryst.   s(47) = (     0          1          0      )
                  (     0          0         -1      )
                  (     1          0          0      )

 cart.    s(47) = (  0.0000000  0.0000000  1.0000000 )
                  (  1.0000000  0.0000000  0.0000000 )
                  (  0.0000000 -1.0000000  0.0000000 )


      isym = 48     inv. 120 deg rotation - cart. axis [-1,-1,1] 

 cryst.   s(48) = (     0         -1          0      )
                  (     0          0          1      )
                  (     1          0          0      )

 cart.    s(48) = (  0.0000000  0.0000000  1.0000000 )
                  ( -1.0000000  0.0000000  0.0000000 )
                  (  0.0000000  1.0000000  0.0000000 )


   Cartesian axes

     site n.     atom                  positions (alat units)
         1           Cs  tau(   1) = (   0.2500001   0.2500001   0.2500001  )
         2           Cs  tau(   2) = (   0.2500001   0.2500001   0.7499999  )
         3           Cs  tau(   3) = (   0.2500001   0.7499999   0.2500001  )
         4           Cs  tau(   4) = (   0.2500001   0.7499999   0.7499999  )
         5           Cs  tau(   5) = (   0.7499999   0.2500001   0.2500001  )
         6           Cs  tau(   6) = (   0.7499999   0.2500001   0.7499999  )
         7           Cs  tau(   7) = (   0.7499999   0.7499999   0.2500001  )
         8           Cs  tau(   8) = (   0.7499999   0.7499999   0.7499999  )
         9           Pb  tau(   9) = (   0.0000000   0.0000000   0.0000000  )
        10           Pb  tau(  10) = (   0.0000000   0.0000000   0.5000000  )
        11           Pb  tau(  11) = (   0.0000000   0.5000000   0.0000000  )
        12           Pb  tau(  12) = (   0.0000000   0.5000000   0.5000000  )
        13           Pb  tau(  13) = (   0.5000000   0.0000000   0.0000000  )
        14           Pb  tau(  14) = (   0.5000000   0.0000000   0.5000000  )
        15           Pb  tau(  15) = (   0.5000000   0.5000000   0.0000000  )
        16           Pb  tau(  16) = (   0.5000000   0.5000000   0.5000000  )
        17           I   tau(  17) = (   0.0000000   0.0000000   0.2500016  )
        18           I   tau(  18) = (   0.0000000   0.0000000   0.7499984  )
        19           I   tau(  19) = (   0.0000000   0.5000000   0.2500017  )
        20           I   tau(  20) = (   0.0000000   0.5000000   0.7499983  )
        21           I   tau(  21) = (   0.5000000   0.0000000   0.2500017  )
        22           I   tau(  22) = (   0.5000000   0.0000000   0.7499983  )
        23           I   tau(  23) = (   0.5000000   0.5000000   0.2500017  )
        24           I   tau(  24) = (   0.5000000   0.5000000   0.7499983  )
        25           I   tau(  25) = (   0.0000000   0.2500016   0.0000000  )
        26           I   tau(  26) = (   0.0000000   0.2500017   0.5000000  )
        27           I   tau(  27) = (   0.0000000   0.7499984   0.0000000  )
        28           I   tau(  28) = (   0.0000000   0.7499983   0.5000000  )
        29           I   tau(  29) = (   0.5000000   0.2500017   0.0000000  )
        30           I   tau(  30) = (   0.5000000   0.2500017   0.5000000  )
        31           I   tau(  31) = (   0.5000000   0.7499983   0.0000000  )
        32           I   tau(  32) = (   0.5000000   0.7499983   0.5000000  )
        33           I   tau(  33) = (   0.2500016   0.0000000   0.0000000  )
        34           I   tau(  34) = (   0.2500017   0.0000000   0.5000000  )
        35           I   tau(  35) = (   0.2500017   0.5000000   0.0000000  )
        36           I   tau(  36) = (   0.2500017   0.5000000   0.5000000  )
        37           I   tau(  37) = (   0.7499984   0.0000000   0.0000000  )
        38           I   tau(  38) = (   0.7499983   0.0000000   0.5000000  )
        39           I   tau(  39) = (   0.7499983   0.5000000   0.0000000  )
        40           I   tau(  40) = (   0.7499983   0.5000000   0.5000000  )

   Crystallographic axes

     site n.     atom                  positions (cryst. coord.)
         1           Cs  tau(   1) = (  0.2500001  0.2500001  0.2500001  )
         2           Cs  tau(   2) = (  0.2500001  0.2500001  0.7499999  )
         3           Cs  tau(   3) = (  0.2500001  0.7499999  0.2500001  )
         4           Cs  tau(   4) = (  0.2500001  0.7499999  0.7499999  )
         5           Cs  tau(   5) = (  0.7499999  0.2500001  0.2500001  )
         6           Cs  tau(   6) = (  0.7499999  0.2500001  0.7499999  )
         7           Cs  tau(   7) = (  0.7499999  0.7499999  0.2500001  )
         8           Cs  tau(   8) = (  0.7499999  0.7499999  0.7499999  )
         9           Pb  tau(   9) = (  0.0000000  0.0000000  0.0000000  )
        10           Pb  tau(  10) = (  0.0000000  0.0000000  0.5000000  )
        11           Pb  tau(  11) = (  0.0000000  0.5000000  0.0000000  )
        12           Pb  tau(  12) = (  0.0000000  0.5000000  0.5000000  )
        13           Pb  tau(  13) = (  0.5000000  0.0000000  0.0000000  )
        14           Pb  tau(  14) = (  0.5000000  0.0000000  0.5000000  )
        15           Pb  tau(  15) = (  0.5000000  0.5000000  0.0000000  )
        16           Pb  tau(  16) = (  0.5000000  0.5000000  0.5000000  )
        17           I   tau(  17) = (  0.0000000  0.0000000  0.2500016  )
        18           I   tau(  18) = (  0.0000000  0.0000000  0.7499984  )
        19           I   tau(  19) = (  0.0000000  0.5000000  0.2500017  )
        20           I   tau(  20) = (  0.0000000  0.5000000  0.7499983  )
        21           I   tau(  21) = (  0.5000000  0.0000000  0.2500017  )
        22           I   tau(  22) = (  0.5000000  0.0000000  0.7499983  )
        23           I   tau(  23) = (  0.5000000  0.5000000  0.2500017  )
        24           I   tau(  24) = (  0.5000000  0.5000000  0.7499983  )
        25           I   tau(  25) = (  0.0000000  0.2500016  0.0000000  )
        26           I   tau(  26) = (  0.0000000  0.2500017  0.5000000  )
        27           I   tau(  27) = (  0.0000000  0.7499984  0.0000000  )
        28           I   tau(  28) = (  0.0000000  0.7499983  0.5000000  )
        29           I   tau(  29) = (  0.5000000  0.2500017  0.0000000  )
        30           I   tau(  30) = (  0.5000000  0.2500017  0.5000000  )
        31           I   tau(  31) = (  0.5000000  0.7499983  0.0000000  )
        32           I   tau(  32) = (  0.5000000  0.7499983  0.5000000  )
        33           I   tau(  33) = (  0.2500016  0.0000000  0.0000000  )
        34           I   tau(  34) = (  0.2500017  0.0000000  0.5000000  )
        35           I   tau(  35) = (  0.2500017  0.5000000  0.0000000  )
        36           I   tau(  36) = (  0.2500017  0.5000000  0.5000000  )
        37           I   tau(  37) = (  0.7499984  0.0000000  0.0000000  )
        38           I   tau(  38) = (  0.7499983  0.0000000  0.5000000  )
        39           I   tau(  39) = (  0.7499983  0.5000000  0.0000000  )
        40           I   tau(  40) = (  0.7499983  0.5000000  0.5000000  )

     number of k points=     4  Marzari-Vanderbilt smearing, width (Ry)=  0.0147
                       cart. coord. in units 2pi/alat
        k(    1) = (   0.0000000   0.0000000   0.0000000), wk =   0.0740741
        k(    2) = (   0.0000000   0.0000000   0.3333333), wk =   0.4444444
        k(    3) = (   0.0000000   0.3333333   0.3333333), wk =   0.8888889
        k(    4) = (   0.3333333   0.3333333   0.3333333), wk =   0.5925926

                       cryst. coord.
        k(    1) = (   0.0000000   0.0000000   0.0000000), wk =   0.0740741
        k(    2) = (   0.0000000   0.0000000   0.3333333), wk =   0.4444444
        k(    3) = (   0.0000000   0.3333333   0.3333333), wk =   0.8888889
        k(    4) = (   0.3333333   0.3333333   0.3333333), wk =   0.5925926

     Dense  grid:  1356433 G-vectors     FFT dimensions: ( 144, 144, 144)

     Smooth grid:   222943 G-vectors     FFT dimensions: (  75,  75,  75)

     Dynamical RAM for                 wfc:      89.69 MB

     Dynamical RAM for     wfc (w. buffer):     448.44 MB

     Dynamical RAM for           str. fact:      62.09 MB

     Dynamical RAM for           local pot:       0.00 MB

     Dynamical RAM for          nlocal pot:     204.03 MB

     Dynamical RAM for                qrad:       4.31 MB

     Dynamical RAM for          rho,v,vnew:     130.44 MB

     Dynamical RAM for               rhoin:      43.48 MB

     Dynamical RAM for            rho*nmix:     331.16 MB

     Dynamical RAM for           G-vectors:      79.32 MB

     Dynamical RAM for          h,s,v(r/c):       8.15 MB

     Dynamical RAM for          <psi|beta>:       1.55 MB

     Dynamical RAM for                 psi:     179.38 MB

     Dynamical RAM for                hpsi:     179.38 MB

     Dynamical RAM for                spsi:     179.38 MB

     Dynamical RAM for      wfcinit/wfcrot:     232.93 MB

     Dynamical RAM for           addusdens:    4346.48 MB

     Dynamical RAM for          addusforce:    5309.01 MB

     Dynamical RAM for         addusstress:    4160.20 MB

     Estimated static dynamical RAM per process >       1.46 GB

     Estimated max dynamical RAM per process >       6.65 GB

     Initial potential from superposition of free atoms

     starting charge  351.66429, renormalised to  352.00000
     Starting wfcs are  272 randomized atomic wfcs
     Checking if some PAW data can be deallocated... 

     total cpu time spent up to now is      151.9 secs

     Self-consistent Calculation

     iteration #  1     ecut=    24.00 Ry     beta= 0.40
     Davidson diagonalization with overlap
     ethr =  1.00E-02,  avg # of iterations =  3.0

     Threshold (ethr) on eigenvalues was too large:
     Diagonalizing with lowered threshold

     Davidson diagonalization with overlap
     ethr =  2.55E-04,  avg # of iterations =  7.0

     total cpu time spent up to now is      856.3 secs

     total energy              =  -16565.52898406 Ry
     estimated scf accuracy    <       0.84396610 Ry

     iteration #  2     ecut=    24.00 Ry     beta= 0.40
     Davidson diagonalization with overlap
     ethr =  2.40E-04,  avg # of iterations =  2.0

     total cpu time spent up to now is     1239.0 secs

     total energy              =  -16565.66114642 Ry
     estimated scf accuracy    <       0.05078472 Ry

     iteration #  3     ecut=    24.00 Ry     beta= 0.40
     Davidson diagonalization with overlap
     c_bands:  4 eigenvalues not converged
     ethr =  1.44E-05,  avg # of iterations = 12.2

     total cpu time spent up to now is     1721.2 secs

     total energy              =  -16565.67311074 Ry
     estimated scf accuracy    <       0.01158658 Ry

     iteration #  4     ecut=    24.00 Ry     beta= 0.40
     Davidson diagonalization with overlap
     ethr =  3.29E-06,  avg # of iterations =  7.2

     total cpu time spent up to now is     2122.5 secs

     total energy              =  -16565.67478245 Ry
     estimated scf accuracy    <       0.00074731 Ry

     iteration #  5     ecut=    24.00 Ry     beta= 0.40
     Davidson diagonalization with overlap
     ethr =  2.12E-07,  avg # of iterations =  4.0

     total cpu time spent up to now is     2547.9 secs

     total energy              =  -16565.67507444 Ry
     estimated scf accuracy    <       0.00005840 Ry

     iteration #  6     ecut=    24.00 Ry     beta= 0.40
     Davidson diagonalization with overlap
     ethr =  1.66E-08,  avg # of iterations =  5.0

     total cpu time spent up to now is     3111.2 secs

     total energy              =  -16565.67510882 Ry
     estimated scf accuracy    <       0.00000415 Ry

     iteration #  7     ecut=    24.00 Ry     beta= 0.40
     Davidson diagonalization with overlap
     ethr =  1.18E-09,  avg # of iterations =  3.8

     total cpu time spent up to now is     3557.8 secs

     total energy              =  -16565.67511154 Ry
     estimated scf accuracy    <       0.00000111 Ry

     iteration #  8     ecut=    24.00 Ry     beta= 0.40
     Davidson diagonalization with overlap
     ethr =  3.14E-10,  avg # of iterations =  3.2

     total cpu time spent up to now is     3980.6 secs

     total energy              =  -16565.67511249 Ry
     estimated scf accuracy    <       0.00000029 Ry

     iteration #  9     ecut=    24.00 Ry     beta= 0.40
     Davidson diagonalization with overlap
     ethr =  8.33E-11,  avg # of iterations =  4.5

     total cpu time spent up to now is     4427.3 secs

     total energy              =  -16565.67511268 Ry
     estimated scf accuracy    <       0.00000002 Ry

     iteration # 10     ecut=    24.00 Ry     beta= 0.40
     Davidson diagonalization with overlap
     ethr =  4.62E-12,  avg # of iterations =  4.0

     total cpu time spent up to now is     4949.0 secs

     End of self-consistent calculation

          k = 0.0000 0.0000 0.0000 ( 27825 PWs)   bands (ev):

   -18.6129 -18.6127 -18.6127 -18.6127 -18.6125 -18.6125 -18.6125 -18.6122
   -13.9803 -13.9803 -13.9803 -13.9772 -13.9772 -13.9731 -13.9731 -13.9731
   -13.9677 -13.9677 -13.9677 -13.9618 -13.9618 -13.9614 -13.9614 -13.9614
   -13.9272 -13.9272 -13.9272 -13.9272 -13.9272 -13.9272 -13.9263 -13.9263
   -13.9263 -13.9262 -13.9262 -13.9262 -13.9259 -13.9259 -13.9259 -13.9259
   -13.9259 -13.9259 -13.9255 -13.9255 -13.9255 -13.9239 -13.9239 -13.9239
    -9.3421  -9.1440  -9.1440  -9.1440  -8.9005  -8.9005  -8.9005  -8.8383
    -8.8383  -8.8383  -8.8383  -8.8383  -8.8383  -8.8379  -8.8379  -8.8379
    -8.8327  -8.8327  -8.8327  -8.6079  -8.6079  -8.6062  -8.6062  -8.6062
    -5.6865  -5.4022  -5.4022  -5.4022  -5.3892  -5.3892  -5.3892  -5.3890
    -5.3890  -5.3890  -5.3890  -5.3890  -5.3890  -5.3852  -5.3852  -5.3852
    -5.3852  -5.3852  -5.3852  -5.3819  -5.3819  -5.3819  -5.3812  -5.3812
    -5.3812  -5.1562  -5.1562  -5.1562  -4.6508  -4.6508  -4.6508  -4.1411
    -0.6274  -0.6274  -0.6274  -0.5247  -0.5247  -0.5247  -0.5247  -0.5247
    -0.5247  -0.3893  -0.3893  -0.3893   0.6189   0.6189   0.6189   0.7514
     0.7514   0.7514   0.8947   0.8947   0.8947   1.2140   1.2140   1.2140
     1.2140   1.2140   1.2140   1.3178   1.3178   1.3178   1.3178   1.3178
     1.3178   1.3662   1.3662   1.3662   1.3662   1.3662   1.3662   1.4255
     1.4255   1.4255   1.4774   1.4775   1.4775   1.4842   1.4842   1.5550
     1.5550   1.5550   1.5798   1.5798   1.5798   1.5798   1.5798   1.5798
     1.6680   1.6680   1.6680   1.9235   1.9235   1.9235   2.0555   2.0555
     2.0555   2.0677   2.0677   2.0677   2.3409   2.3409   2.3409   2.7572
     4.1901   4.1901   4.1901   4.6179   4.6179   4.6179   4.6179   4.6179
     4.6179   4.9492   4.9492   4.9492   5.9044   6.7594   6.9821   6.9821
     7.3280   7.3280   7.3280   7.4332   7.4332   7.4332   7.5455   7.5455
     7.5455   7.6092   7.6092   7.6093   7.7759   7.7759   7.7760   7.8775
     7.8778   7.9027   7.9027

     occupation numbers 
     1.0000   1.0000   1.0000   1.0000   1.0000   1.0000   1.0000   1.0000
     1.0000   1.0000   1.0000   1.0000   1.0000   1.0000   1.0000   1.0000
     1.0000   1.0000   1.0000   1.0000   1.0000   1.0000   1.0000   1.0000
     1.0000   1.0000   1.0000   1.0000   1.0000   1.0000   1.0000   1.0000
     1.0000   1.0000   1.0000   1.0000   1.0000   1.0000   1.0000   1.0000
     1.0000   1.0000   1.0000   1.0000   1.0000   1.0000   1.0000   1.0000
     1.0000   1.0000   1.0000   1.0000   1.0000   1.0000   1.0000   1.0000
     1.0000   1.0000   1.0000   1.0000   1.0000   1.0000   1.0000   1.0000
     1.0000   1.0000   1.0000   1.0000   1.0000   1.0000   1.0000   1.0000
     1.0000   1.0000   1.0000   1.0000   1.0000   1.0000   1.0000   1.0000
     1.0000   1.0000   1.0000   1.0000   1.0000   1.0000   1.0000   1.0000
     1.0000   1.0000   1.0000   1.0000   1.0000   1.0000   1.0000   1.0000
     1.0000   1.0000   1.0000   1.0000   1.0000   1.0000   1.0000   1.0000
     1.0000   1.0000   1.0000   1.0000   1.0000   1.0000   1.0000   1.0000
     1.0000   1.0000   1.0000   1.0000   1.0000   1.0000   1.0000   1.0000
     1.0000   1.0000   1.0000   1.0000   1.0000   1.0000   1.0000   1.0000
     1.0000   1.0000   1.0000   1.0000   1.0000   1.0000   1.0000   1.0000
     1.0000   1.0000   1.0000   1.0000   1.0000   1.0000   1.0000   1.0000
     1.0000   1.0000   1.0000   1.0000   1.0000   1.0000   1.0000   1.0000
     1.0000   1.0000   1.0000   1.0000   1.0000   1.0000   1.0000   1.0000
     1.0000   1.0000   1.0000   1.0001   1.0001   1.0001   1.0022   1.0022
     1.0022   1.0028   1.0028   1.0028   1.0822   1.0822   1.0822   0.1056
     0.0000   0.0000   0.0000   0.0000   0.0000   0.0000   0.0000   0.0000
     0.0000   0.0000   0.0000   0.0000   0.0000   0.0000   0.0000   0.0000
     0.0000   0.0000   0.0000   0.0000   0.0000   0.0000   0.0000   0.0000
     0.0000   0.0000   0.0000   0.0000   0.0000   0.0000   0.0000   0.0000
     0.0000   0.0000   0.0000

          k = 0.0000 0.0000 0.3333 ( 27914 PWs)   bands (ev):

   -18.6129 -18.6128 -18.6126 -18.6126 -18.6125 -18.6125 -18.6124 -18.6123
   -13.9793 -13.9792 -13.9774 -13.9774 -13.9765 -13.9745 -13.9745 -13.9709
   -13.9706 -13.9666 -13.9666 -13.9650 -13.9643 -13.9643 -13.9620 -13.9616
   -13.9271 -13.9269 -13.9269 -13.9268 -13.9268 -13.9268 -13.9266 -13.9266
   -13.9264 -13.9264 -13.9264 -13.9264 -13.9261 -13.9261 -13.9261 -13.9261
   -13.9259 -13.9259 -13.9259 -13.9256 -13.9256 -13.9255 -13.9254 -13.9254
    -9.3064  -9.2140  -9.1082  -9.1082  -9.0101  -9.0101  -8.8844  -8.8506
    -8.8382  -8.8382  -8.8379  -8.8379  -8.8369  -8.8369  -8.8341  -8.8341
    -8.7597  -8.7313  -8.7313  -8.6517  -8.6387  -8.6387  -8.6077  -8.6066
    -5.5665  -5.3989  -5.3989  -5.3972  -5.3923  -5.3923  -5.3882  -5.3882
    -5.3882  -5.3882  -5.3881  -5.3881  -5.3870  -5.3866  -5.3862  -5.3862
    -5.3862  -5.3862  -5.3844  -5.3844  -5.3839  -5.3839  -5.3827  -5.3827
    -5.3825  -5.3034  -5.0453  -5.0453  -4.7958  -4.7958  -4.5452  -4.2946
    -0.6034  -0.6034  -0.5521  -0.5521  -0.4937  -0.4937  -0.4262  -0.4262
    -0.2322  -0.1329  -0.1329   0.0076   0.5639   0.6511   0.6804   0.6804
     0.7171   0.7263   0.7263   0.8111   0.8111   0.8205   0.8205   0.9225
     0.9854   0.9854   1.2073   1.2073   1.2290   1.2290   1.3297   1.3297
     1.3540   1.3540   1.3854   1.3854   1.4206   1.4206   1.4566   1.4791
     1.4822   1.5161   1.5161   1.5175   1.5175   1.5212   1.5214   1.5214
     1.5623   1.5623   1.5951   1.5951   1.6085   1.6085   1.6303   1.6364
     1.6364   1.6693   1.6824   1.6824   1.9246   1.9246   1.9445   1.9445
     1.9540   1.9540   2.0586   2.0647   2.0904   2.0904   2.3648   2.4794
     4.3098   4.3098   4.5222   4.5222   4.7104   4.7104   4.8768   4.8768
     5.2154   5.5334   5.5334   5.8205   6.1567   6.7179   6.7921   6.9524
     7.0600   7.0600   7.1207   7.1878   7.4005   7.4551   7.4551   7.4583
     7.4628   7.5904   7.5904   7.6028   7.6032   7.6815   7.7394   7.7395
     7.7821   7.7822   7.8711

     occupation numbers 
     1.0000   1.0000   1.0000   1.0000   1.0000   1.0000   1.0000   1.0000
     1.0000   1.0000   1.0000   1.0000   1.0000   1.0000   1.0000   1.0000
     1.0000   1.0000   1.0000   1.0000   1.0000   1.0000   1.0000   1.0000
     1.0000   1.0000   1.0000   1.0000   1.0000   1.0000   1.0000   1.0000
     1.0000   1.0000   1.0000   1.0000   1.0000   1.0000   1.0000   1.0000
     1.0000   1.0000   1.0000   1.0000   1.0000   1.0000   1.0000   1.0000
     1.0000   1.0000   1.0000   1.0000   1.0000   1.0000   1.0000   1.0000
     1.0000   1.0000   1.0000   1.0000   1.0000   1.0000   1.0000   1.0000
     1.0000   1.0000   1.0000   1.0000   1.0000   1.0000   1.0000   1.0000
     1.0000   1.0000   1.0000   1.0000   1.0000   1.0000   1.0000   1.0000
     1.0000   1.0000   1.0000   1.0000   1.0000   1.0000   1.0000   1.0000
     1.0000   1.0000   1.0000   1.0000   1.0000   1.0000   1.0000   1.0000
     1.0000   1.0000   1.0000   1.0000   1.0000   1.0000   1.0000   1.0000
     1.0000   1.0000   1.0000   1.0000   1.0000   1.0000   1.0000   1.0000
     1.0000   1.0000   1.0000   1.0000   1.0000   1.0000   1.0000   1.0000
     1.0000   1.0000   1.0000   1.0000   1.0000   1.0000   1.0000   1.0000
     1.0000   1.0000   1.0000   1.0000   1.0000   1.0000   1.0000   1.0000
     1.0000   1.0000   1.0000   1.0000   1.0000   1.0000   1.0000   1.0000
     1.0000   1.0000   1.0000   1.0000   1.0000   1.0000   1.0000   1.0000
     1.0000   1.0000   1.0000   1.0000   1.0000   1.0000   1.0000   1.0000
     1.0000   1.0000   1.0000   1.0000   1.0001   1.0001   1.0001   1.0001
     1.0002   1.0002   1.0023   1.0026   1.0044   1.0044   1.0827   0.9442
     0.0000   0.0000   0.0000   0.0000   0.0000   0.0000   0.0000   0.0000
     0.0000   0.0000   0.0000   0.0000   0.0000   0.0000   0.0000   0.0000
     0.0000   0.0000   0.0000   0.0000   0.0000   0.0000   0.0000   0.0000
     0.0000   0.0000   0.0000   0.0000   0.0000   0.0000   0.0000   0.0000
     0.0000   0.0000   0.0000

          k = 0.0000 0.3333 0.3333 ( 27846 PWs)   bands (ev):

   -18.6128 -18.6127 -18.6127 -18.6126 -18.6126 -18.6125 -18.6125 -18.6123
   -13.9772 -13.9769 -13.9769 -13.9753 -13.9750 -13.9747 -13.9713 -13.9713
   -13.9694 -13.9694 -13.9667 -13.9662 -13.9654 -13.9639 -13.9639 -13.9628
   -13.9266 -13.9266 -13.9265 -13.9265 -13.9265 -13.9264 -13.9262 -13.9262
   -13.9261 -13.9261 -13.9261 -13.9260 -13.9260 -13.9260 -13.9260 -13.9259
   -13.9259 -13.9258 -13.9257 -13.9256 -13.9256 -13.9256 -13.9254 -13.9254
    -9.2711  -9.1794  -9.1793  -9.0877  -9.0752  -8.9853  -8.9853  -8.9209
    -8.8377  -8.8372  -8.8372  -8.8351  -8.7833  -8.7784  -8.7620  -8.7620
    -8.7423  -8.7423  -8.7084  -8.6685  -8.6654  -8.6384  -8.6384  -8.6306
    -5.4535  -5.3979  -5.3924  -5.3921  -5.3921  -5.3921  -5.3921  -5.3918
    -5.3894  -5.3887  -5.3887  -5.3875  -5.3875  -5.3872  -5.3869  -5.3857
    -5.3853  -5.3853  -5.3850  -5.3850  -5.3843  -5.3836  -5.3833  -5.3830
    -5.3830  -5.1901  -5.1901  -4.9398  -4.9376  -4.6906  -4.6906  -4.4436
    -0.5777  -0.5230  -0.5230  -0.4603  -0.2835  -0.1683  -0.1683  -0.1623
    -0.1354  -0.0410  -0.0378  -0.0378   0.5778   0.5819   0.5819   0.6402
     0.7029   0.7029   0.7346   0.7422   0.7422   0.7711   0.7833   0.7953
     0.8303   0.9892   0.9892   1.0512   1.0584   1.1721   1.1931   1.1931
     1.2372   1.2372   1.3373   1.3568   1.3731   1.4076   1.4076   1.4187
     1.4914   1.5342   1.5342   1.5359   1.5375   1.5579   1.5579   1.5702
     1.5871   1.5920   1.6004   1.6004   1.6290   1.6290   1.6765   1.7019
     1.7019   1.7153   1.7433   1.7642   1.7642   1.7934   1.8697   1.8981
     1.9037   1.9504   1.9504   1.9688   1.9850   2.0977   2.0977   2.1814
     4.4210   4.6203   4.6203   4.7976   5.2550   5.3284   5.4516   5.4516
     5.5792   5.6305   5.7506   5.7506   6.3680   6.7777   6.7777   6.8989
     6.8989   6.9121   6.9741   7.0871   7.1724   7.1724   7.2093   7.2907
     7.3012   7.3467   7.3530   7.4237   7.4474   7.4475   7.5941   7.5942
     7.6076   7.6254   7.7139

     occupation numbers 
     1.0000   1.0000   1.0000   1.0000   1.0000   1.0000   1.0000   1.0000
     1.0000   1.0000   1.0000   1.0000   1.0000   1.0000   1.0000   1.0000
     1.0000   1.0000   1.0000   1.0000   1.0000   1.0000   1.0000   1.0000
     1.0000   1.0000   1.0000   1.0000   1.0000   1.0000   1.0000   1.0000
     1.0000   1.0000   1.0000   1.0000   1.0000   1.0000   1.0000   1.0000
     1.0000   1.0000   1.0000   1.0000   1.0000   1.0000   1.0000   1.0000
     1.0000   1.0000   1.0000   1.0000   1.0000   1.0000   1.0000   1.0000
     1.0000   1.0000   1.0000   1.0000   1.0000   1.0000   1.0000   1.0000
     1.0000   1.0000   1.0000   1.0000   1.0000   1.0000   1.0000   1.0000
     1.0000   1.0000   1.0000   1.0000   1.0000   1.0000   1.0000   1.0000
     1.0000   1.0000   1.0000   1.0000   1.0000   1.0000   1.0000   1.0000
     1.0000   1.0000   1.0000   1.0000   1.0000   1.0000   1.0000   1.0000
     1.0000   1.0000   1.0000   1.0000   1.0000   1.0000   1.0000   1.0000
     1.0000   1.0000   1.0000   1.0000   1.0000   1.0000   1.0000   1.0000
     1.0000   1.0000   1.0000   1.0000   1.0000   1.0000   1.0000   1.0000
     1.0000   1.0000   1.0000   1.0000   1.0000   1.0000   1.0000   1.0000
     1.0000   1.0000   1.0000   1.0000   1.0000   1.0000   1.0000   1.0000
     1.0000   1.0000   1.0000   1.0000   1.0000   1.0000   1.0000   1.0000
     1.0000   1.0000   1.0000   1.0000   1.0000   1.0000   1.0000   1.0000
     1.0000   1.0000   1.0000   1.0000   1.0000   1.0000   1.0000   1.0000
     1.0000   1.0000   1.0000   1.0000   1.0000   1.0000   1.0000   1.0000
     1.0000   1.0002   1.0002   1.0003   1.0004   1.0051   1.0051   1.0204
     0.0000   0.0000   0.0000   0.0000   0.0000   0.0000   0.0000   0.0000
     0.0000   0.0000   0.0000   0.0000   0.0000   0.0000   0.0000   0.0000
     0.0000   0.0000   0.0000   0.0000   0.0000   0.0000   0.0000   0.0000
     0.0000   0.0000   0.0000   0.0000   0.0000   0.0000   0.0000   0.0000
     0.0000   0.0000   0.0000

          k = 0.3333 0.3333 0.3333 ( 27844 PWs)   bands (ev):

   -18.6127 -18.6126 -18.6126 -18.6126 -18.6125 -18.6125 -18.6125 -18.6124
   -13.9746 -13.9746 -13.9746 -13.9745 -13.9745 -13.9717 -13.9717 -13.9717
   -13.9690 -13.9690 -13.9689 -13.9661 -13.9661 -13.9661 -13.9659 -13.9659
   -13.9265 -13.9263 -13.9263 -13.9263 -13.9262 -13.9262 -13.9261 -13.9261
   -13.9261 -13.9261 -13.9261 -13.9260 -13.9260 -13.9260 -13.9260 -13.9260
   -13.9260 -13.9260 -13.9259 -13.9259 -13.9259 -13.9259 -13.9259 -13.9256
    -9.2366  -9.1465  -9.1465  -9.1465  -9.0598  -9.0598  -9.0597  -8.9866
    -8.7821  -8.7821  -8.7821  -8.7796  -8.7796  -8.7633  -8.7633  -8.7633
    -8.7265  -8.7265  -8.7265  -8.6676  -8.6676  -8.6660  -8.6660  -8.6660
    -5.3956  -5.3956  -5.3936  -5.3911  -5.3911  -5.3911  -5.3910  -5.3910
    -5.3910  -5.3893  -5.3893  -5.3893  -5.3889  -5.3889  -5.3882  -5.3882
    -5.3882  -5.3837  -5.3837  -5.3837  -5.3818  -5.3817  -5.3817  -5.3817
    -5.3301  -5.0814  -5.0814  -5.0814  -4.8343  -4.8343  -4.8343  -4.5894
    -0.2558  -0.2558  -0.1956  -0.1956  -0.1956  -0.0838  -0.0838  -0.0838
    -0.0794  -0.0794  -0.0794  -0.0433   0.5986   0.5986   0.5986   0.6045
     0.6045   0.6045   0.6549   0.6549   0.6549   0.6788   0.6788   0.6953
     0.9686   0.9686   1.0043   1.0043   1.0043   1.1364   1.1364   1.1364
     1.1820   1.1820   1.1820   1.2757   1.2757   1.2757   1.3221   1.3221
     1.4275   1.4442   1.4442   1.4442   1.4865   1.4865   1.4865   1.6709
     1.6833   1.6833   1.6833   1.7126   1.7126   1.7228   1.7228   1.7228
     1.7278   1.7367   1.7367   1.7367   1.7764   1.7764   1.7764   1.8267
     1.8267   1.8267   1.8871   1.8871   1.9045   1.9045   1.9045   1.9259
     5.3343   5.3343   5.4309   5.4969   5.4969   5.4969   5.5516   5.5516
     5.5516   5.6753   5.6753   5.6753   6.5167   6.8184   6.8184   6.8184
     6.8498   6.8498   6.8498   7.0213   7.0214   7.0214   7.1224   7.1579
     7.1579   7.1842   7.1843   7.1843   7.1889   7.2858   7.2859   7.2859
     7.4112   7.4112   7.7814

     occupation numbers 
     1.0000   1.0000   1.0000   1.0000   1.0000   1.0000   1.0000   1.0000
     1.0000   1.0000   1.0000   1.0000   1.0000   1.0000   1.0000   1.0000
     1.0000   1.0000   1.0000   1.0000   1.0000   1.0000   1.0000   1.0000
     1.0000   1.0000   1.0000   1.0000   1.0000   1.0000   1.0000   1.0000
     1.0000   1.0000   1.0000   1.0000   1.0000   1.0000   1.0000   1.0000
     1.0000   1.0000   1.0000   1.0000   1.0000   1.0000   1.0000   1.0000
     1.0000   1.0000   1.0000   1.0000   1.0000   1.0000   1.0000   1.0000
     1.0000   1.0000   1.0000   1.0000   1.0000   1.0000   1.0000   1.0000
     1.0000   1.0000   1.0000   1.0000   1.0000   1.0000   1.0000   1.0000
     1.0000   1.0000   1.0000   1.0000   1.0000   1.0000   1.0000   1.0000
     1.0000   1.0000   1.0000   1.0000   1.0000   1.0000   1.0000   1.0000
     1.0000   1.0000   1.0000   1.0000   1.0000   1.0000   1.0000   1.0000
     1.0000   1.0000   1.0000   1.0000   1.0000   1.0000   1.0000   1.0000
     1.0000   1.0000   1.0000   1.0000   1.0000   1.0000   1.0000   1.0000
     1.0000   1.0000   1.0000   1.0000   1.0000   1.0000   1.0000   1.0000
     1.0000   1.0000   1.0000   1.0000   1.0000   1.0000   1.0000   1.0000
     1.0000   1.0000   1.0000   1.0000   1.0000   1.0000   1.0000   1.0000
     1.0000   1.0000   1.0000   1.0000   1.0000   1.0000   1.0000   1.0000
     1.0000   1.0000   1.0000   1.0000   1.0000   1.0000   1.0000   1.0000
     1.0000   1.0000   1.0000   1.0000   1.0000   1.0000   1.0000   1.0000
     1.0000   1.0000   1.0000   1.0000   1.0000   1.0000   1.0000   1.0000
     1.0000   1.0000   1.0000   1.0000   1.0000   1.0000   1.0000   1.0001
     0.0000   0.0000   0.0000   0.0000   0.0000   0.0000   0.0000   0.0000
     0.0000   0.0000   0.0000   0.0000   0.0000   0.0000   0.0000   0.0000
     0.0000   0.0000   0.0000   0.0000   0.0000   0.0000   0.0000   0.0000
     0.0000   0.0000   0.0000   0.0000   0.0000   0.0000   0.0000   0.0000
     0.0000   0.0000   0.0000

     the Fermi energy is     2.6379 ev

!    total energy              =  -16565.67511273 Ry
     estimated scf accuracy    <          4.6E-09 Ry
     smearing contrib. (-TS)   =       0.00326862 Ry
     internal energy E=F+TS    =  -16565.67838134 Ry

     The total energy is F=E-TS. E is the sum of the following terms:
     one-electron contribution =    -767.25220624 Ry
     hartree contribution      =     548.78752463 Ry
     xc contribution           =   -1598.10124952 Ry
     ewald contribution        =   -1229.22289246 Ry
     one-center paw contrib.   =  -13519.88955775 Ry
      -> PAW hartree energy AE =    1015.68007975 Ry
      -> PAW hartree energy PS =   -1014.94765350 Ry
      -> PAW xc energy AE      =  -14841.77261677 Ry
      -> PAW xc energy PS      =    1321.15063276 Ry
      -> total E_H with PAW    =     549.51995088 Ry
      -> total E_XC with PAW   =  -15118.72323353 Ry

     convergence has been achieved in  10 iterations

     Forces acting on atoms (cartesian axes, Ry/au):

     atom    1 type  1   force =     0.00000014    0.00000014    0.00000014
     atom    2 type  1   force =     0.00000014    0.00000014   -0.00000014
     atom    3 type  1   force =     0.00000014   -0.00000014    0.00000014
     atom    4 type  1   force =     0.00000014   -0.00000014   -0.00000014
     atom    5 type  1   force =    -0.00000014    0.00000014    0.00000014
     atom    6 type  1   force =    -0.00000014    0.00000014   -0.00000014
     atom    7 type  1   force =    -0.00000014   -0.00000014    0.00000014
     atom    8 type  1   force =    -0.00000014   -0.00000014   -0.00000014
     atom    9 type  3   force =     0.00000000    0.00000000    0.00000000
     atom   10 type  3   force =     0.00000000    0.00000000    0.00000000
     atom   11 type  3   force =     0.00000000    0.00000000    0.00000000
     atom   12 type  3   force =     0.00000000    0.00000000    0.00000000
     atom   13 type  3   force =     0.00000000    0.00000000    0.00000000
     atom   14 type  3   force =     0.00000000    0.00000000    0.00000000
     atom   15 type  3   force =     0.00000000    0.00000000    0.00000000
     atom   16 type  3   force =     0.00000000    0.00000000    0.00000000
     atom   17 type  2   force =     0.00000000    0.00000000   -0.00000375
     atom   18 type  2   force =     0.00000000    0.00000000    0.00000375
     atom   19 type  2   force =     0.00000000    0.00000000   -0.00000517
     atom   20 type  2   force =     0.00000000   -0.00000000    0.00000517
     atom   21 type  2   force =    -0.00000000    0.00000000   -0.00000517
     atom   22 type  2   force =     0.00000000    0.00000000    0.00000517
     atom   23 type  2   force =     0.00000000    0.00000000   -0.00000621
     atom   24 type  2   force =     0.00000000    0.00000000    0.00000621
     atom   25 type  2   force =     0.00000000   -0.00000375    0.00000000
     atom   26 type  2   force =     0.00000000   -0.00000517    0.00000000
     atom   27 type  2   force =     0.00000000    0.00000375    0.00000000
     atom   28 type  2   force =     0.00000000    0.00000517    0.00000000
     atom   29 type  2   force =     0.00000000   -0.00000517    0.00000000
     atom   30 type  2   force =     0.00000000   -0.00000621    0.00000000
     atom   31 type  2   force =    -0.00000000    0.00000517    0.00000000
     atom   32 type  2   force =    -0.00000000    0.00000621   -0.00000000
     atom   33 type  2   force =    -0.00000375    0.00000000    0.00000000
     atom   34 type  2   force =    -0.00000517    0.00000000    0.00000000
     atom   35 type  2   force =    -0.00000517    0.00000000    0.00000000
     atom   36 type  2   force =    -0.00000621    0.00000000    0.00000000
     atom   37 type  2   force =     0.00000375    0.00000000    0.00000000
     atom   38 type  2   force =     0.00000517    0.00000000    0.00000000
     atom   39 type  2   force =     0.00000517    0.00000000    0.00000000
     atom   40 type  2   force =     0.00000621   -0.00000000    0.00000000
     The non-local contrib.  to forces
     atom    1 type  1   force =     0.00000018    0.00000018    0.00000018
     atom    2 type  1   force =     0.00000018    0.00000018   -0.00000018
     atom    3 type  1   force =     0.00000018   -0.00000018    0.00000018
     atom    4 type  1   force =     0.00000018   -0.00000018   -0.00000018
     atom    5 type  1   force =    -0.00000018    0.00000018    0.00000018
     atom    6 type  1   force =    -0.00000018    0.00000018   -0.00000018
     atom    7 type  1   force =    -0.00000018   -0.00000018    0.00000018
     atom    8 type  1   force =    -0.00000018   -0.00000018   -0.00000018
     atom    9 type  3   force =     0.00000000    0.00000000    0.00000000
     atom   10 type  3   force =     0.00000000    0.00000000    0.00000000
     atom   11 type  3   force =     0.00000000    0.00000000    0.00000000
     atom   12 type  3   force =     0.00000000    0.00000000    0.00000000
     atom   13 type  3   force =     0.00000000    0.00000000    0.00000000
     atom   14 type  3   force =     0.00000000    0.00000000    0.00000000
     atom   15 type  3   force =     0.00000000    0.00000000    0.00000000
     atom   16 type  3   force =     0.00000000    0.00000000    0.00000000
     atom   17 type  2   force =     0.00000000    0.00000000    0.00000219
     atom   18 type  2   force =    -0.00000000    0.00000000   -0.00000219
     atom   19 type  2   force =     0.00000000    0.00000000    0.00000078
     atom   20 type  2   force =     0.00000000   -0.00000000   -0.00000078
     atom   21 type  2   force =     0.00000000    0.00000000    0.00000078
     atom   22 type  2   force =     0.00000000    0.00000000   -0.00000078
     atom   23 type  2   force =     0.00000000    0.00000000   -0.00000083
     atom   24 type  2   force =     0.00000000   -0.00000000    0.00000083
     atom   25 type  2   force =     0.00000000    0.00000219    0.00000000
     atom   26 type  2   force =     0.00000000    0.00000078    0.00000000
     atom   27 type  2   force =    -0.00000000   -0.00000219    0.00000000
     atom   28 type  2   force =     0.00000000   -0.00000078    0.00000000
     atom   29 type  2   force =     0.00000000    0.00000078   -0.00000000
     atom   30 type  2   force =    -0.00000000   -0.00000083    0.00000000
     atom   31 type  2   force =     0.00000000   -0.00000078   -0.00000000
     atom   32 type  2   force =     0.00000000    0.00000083    0.00000000
     atom   33 type  2   force =     0.00000219    0.00000000    0.00000000
     atom   34 type  2   force =     0.00000078    0.00000000    0.00000000
     atom   35 type  2   force =     0.00000078    0.00000000    0.00000000
     atom   36 type  2   force =    -0.00000083    0.00000000    0.00000000
     atom   37 type  2   force =    -0.00000219    0.00000000    0.00000000
     atom   38 type  2   force =    -0.00000078    0.00000000    0.00000000
     atom   39 type  2   force =    -0.00000078   -0.00000000    0.00000000
     atom   40 type  2   force =     0.00000083   -0.00000000    0.00000000
     The ionic contribution  to forces
     atom    1 type  1   force =    -0.00004935   -0.00004935   -0.00004935
     atom    2 type  1   force =    -0.00004935   -0.00004935    0.00004935
     atom    3 type  1   force =    -0.00004935    0.00004935   -0.00004935
     atom    4 type  1   force =    -0.00004935    0.00004935    0.00004935
     atom    5 type  1   force =     0.00004935   -0.00004935   -0.00004935
     atom    6 type  1   force =     0.00004935   -0.00004935    0.00004935
     atom    7 type  1   force =     0.00004935    0.00004935   -0.00004935
     atom    8 type  1   force =     0.00004935    0.00004935    0.00004935
     atom    9 type  3   force =    -0.00000000   -0.00000000   -0.00000000
     atom   10 type  3   force =     0.00000000    0.00000000    0.00000000
     atom   11 type  3   force =     0.00000000    0.00000000    0.00000000
     atom   12 type  3   force =    -0.00000000    0.00000000    0.00000000
     atom   13 type  3   force =     0.00000000    0.00000000    0.00000000
     atom   14 type  3   force =     0.00000000   -0.00000000    0.00000000
     atom   15 type  3   force =     0.00000000    0.00000000   -0.00000000
     atom   16 type  3   force =     0.00000000    0.00000000    0.00000000
     atom   17 type  2   force =    -0.00000000   -0.00000000   -0.00020855
     atom   18 type  2   force =    -0.00000000   -0.00000000    0.00020855
     atom   19 type  2   force =    -0.00000000    0.00000000   -0.00021075
     atom   20 type  2   force =    -0.00000000    0.00000000    0.00021075
     atom   21 type  2   force =     0.00000000   -0.00000000   -0.00021075
     atom   22 type  2   force =     0.00000000   -0.00000000    0.00021075
     atom   23 type  2   force =     0.00000000    0.00000000   -0.00021115
     atom   24 type  2   force =    -0.00000000   -0.00000000    0.00021115
     atom   25 type  2   force =    -0.00000000   -0.00020855   -0.00000000
     atom   26 type  2   force =    -0.00000000   -0.00021075    0.00000000
     atom   27 type  2   force =    -0.00000000    0.00020855   -0.00000000
     atom   28 type  2   force =    -0.00000000    0.00021075    0.00000000
     atom   29 type  2   force =     0.00000000   -0.00021075   -0.00000000
     atom   30 type  2   force =     0.00000000   -0.00021115    0.00000000
     atom   31 type  2   force =     0.00000000    0.00021075   -0.00000000
     atom   32 type  2   force =    -0.00000000    0.00021115   -0.00000000
     atom   33 type  2   force =    -0.00020855   -0.00000000   -0.00000000
     atom   34 type  2   force =    -0.00021075   -0.00000000    0.00000000
     atom   35 type  2   force =    -0.00021075    0.00000000   -0.00000000
     atom   36 type  2   force =    -0.00021115    0.00000000    0.00000000
     atom   37 type  2   force =     0.00020855   -0.00000000   -0.00000000
     atom   38 type  2   force =     0.00021075   -0.00000000    0.00000000
     atom   39 type  2   force =     0.00021075    0.00000000   -0.00000000
     atom   40 type  2   force =     0.00021115   -0.00000000   -0.00000000
     The local contribution  to forces
     atom    1 type  1   force =     0.00004679    0.00004679    0.00004679
     atom    2 type  1   force =     0.00004679    0.00004679   -0.00004679
     atom    3 type  1   force =     0.00004679   -0.00004679    0.00004679
     atom    4 type  1   force =     0.00004679   -0.00004679   -0.00004679
     atom    5 type  1   force =    -0.00004679    0.00004679    0.00004679
     atom    6 type  1   force =    -0.00004679    0.00004679   -0.00004679
     atom    7 type  1   force =    -0.00004679   -0.00004679    0.00004679
     atom    8 type  1   force =    -0.00004679   -0.00004679   -0.00004679
     atom    9 type  3   force =     0.00000000    0.00000000    0.00000000
     atom   10 type  3   force =     0.00000000    0.00000000    0.00000000
     atom   11 type  3   force =     0.00000000    0.00000000    0.00000000
     atom   12 type  3   force =     0.00000000    0.00000000    0.00000000
     atom   13 type  3   force =     0.00000000    0.00000000    0.00000000
     atom   14 type  3   force =     0.00000000    0.00000000    0.00000000
     atom   15 type  3   force =     0.00000000    0.00000000    0.00000000
     atom   16 type  3   force =     0.00000000    0.00000000    0.00000000
     atom   17 type  2   force =    -0.00000000   -0.00000000    0.00020699
     atom   18 type  2   force =    -0.00000000   -0.00000000   -0.00020699
     atom   19 type  2   force =    -0.00000000    0.00000000    0.00020149
     atom   20 type  2   force =    -0.00000000    0.00000000   -0.00020149
     atom   21 type  2   force =     0.00000000   -0.00000000    0.00020149
     atom   22 type  2   force =     0.00000000   -0.00000000   -0.00020149
     atom   23 type  2   force =     0.00000000    0.00000000    0.00019402
     atom   24 type  2   force =    -0.00000000   -0.00000000   -0.00019402
     atom   25 type  2   force =    -0.00000000    0.00020699   -0.00000000
     atom   26 type  2   force =    -0.00000000    0.00020149   -0.00000000
     atom   27 type  2   force =    -0.00000000   -0.00020699   -0.00000000
     atom   28 type  2   force =    -0.00000000   -0.00020149    0.00000000
     atom   29 type  2   force =     0.00000000    0.00020149   -0.00000000
     atom   30 type  2   force =     0.00000000    0.00019402    0.00000000
     atom   31 type  2   force =     0.00000000   -0.00020149   -0.00000000
     atom   32 type  2   force =     0.00000000   -0.00019402   -0.00000000
     atom   33 type  2   force =     0.00020699   -0.00000000   -0.00000000
     atom   34 type  2   force =     0.00020149   -0.00000000   -0.00000000
     atom   35 type  2   force =     0.00020149    0.00000000   -0.00000000
     atom   36 type  2   force =     0.00019402    0.00000000    0.00000000
     atom   37 type  2   force =    -0.00020699   -0.00000000   -0.00000000
     atom   38 type  2   force =    -0.00020149   -0.00000000    0.00000000
     atom   39 type  2   force =    -0.00020149    0.00000000   -0.00000000
     atom   40 type  2   force =    -0.00019402    0.00000000   -0.00000000
     The core correction contribution to forces
     atom    1 type  1   force =    -0.00000003   -0.00000003   -0.00000003
     atom    2 type  1   force =    -0.00000003   -0.00000003    0.00000003
     atom    3 type  1   force =    -0.00000003    0.00000003   -0.00000003
     atom    4 type  1   force =    -0.00000003    0.00000003    0.00000003
     atom    5 type  1   force =     0.00000003   -0.00000003   -0.00000003
     atom    6 type  1   force =     0.00000003   -0.00000003    0.00000003
     atom    7 type  1   force =     0.00000003    0.00000003   -0.00000003
     atom    8 type  1   force =     0.00000003    0.00000003    0.00000003
     atom    9 type  3   force =     0.00000000    0.00000000    0.00000000
     atom   10 type  3   force =    -0.00000000   -0.00000000    0.00000000
     atom   11 type  3   force =    -0.00000000    0.00000000   -0.00000000
     atom   12 type  3   force =     0.00000000   -0.00000000   -0.00000000
     atom   13 type  3   force =     0.00000000   -0.00000000   -0.00000000
     atom   14 type  3   force =    -0.00000000    0.00000000   -0.00000000
     atom   15 type  3   force =    -0.00000000   -0.00000000    0.00000000
     atom   16 type  3   force =     0.00000000    0.00000000    0.00000000
     atom   17 type  2   force =     0.00000000    0.00000000    0.00000113
     atom   18 type  2   force =     0.00000000    0.00000000   -0.00000113
     atom   19 type  2   force =     0.00000000   -0.00000000    0.00000062
     atom   20 type  2   force =     0.00000000   -0.00000000   -0.00000062
     atom   21 type  2   force =    -0.00000000    0.00000000    0.00000062
     atom   22 type  2   force =    -0.00000000    0.00000000   -0.00000062
     atom   23 type  2   force =    -0.00000000   -0.00000000   -0.00000008
     atom   24 type  2   force =     0.00000000    0.00000000    0.00000008
     atom   25 type  2   force =     0.00000000    0.00000113    0.00000000
     atom   26 type  2   force =     0.00000000    0.00000062   -0.00000000
     atom   27 type  2   force =     0.00000000   -0.00000113    0.00000000
     atom   28 type  2   force =     0.00000000   -0.00000062   -0.00000000
     atom   29 type  2   force =    -0.00000000    0.00000062    0.00000000
     atom   30 type  2   force =    -0.00000000   -0.00000008   -0.00000000
     atom   31 type  2   force =    -0.00000000   -0.00000062    0.00000000
     atom   32 type  2   force =     0.00000000    0.00000008    0.00000000
     atom   33 type  2   force =     0.00000113    0.00000000    0.00000000
     atom   34 type  2   force =     0.00000062    0.00000000   -0.00000000
     atom   35 type  2   force =     0.00000062   -0.00000000    0.00000000
     atom   36 type  2   force =    -0.00000008   -0.00000000   -0.00000000
     atom   37 type  2   force =    -0.00000113    0.00000000    0.00000000
     atom   38 type  2   force =    -0.00000062    0.00000000   -0.00000000
     atom   39 type  2   force =    -0.00000062   -0.00000000    0.00000000
     atom   40 type  2   force =     0.00000008    0.00000000    0.00000000
     The Hubbard contrib.    to forces
     atom    1 type  1   force =     0.00000000    0.00000000    0.00000000
     atom    2 type  1   force =     0.00000000    0.00000000    0.00000000
     atom    3 type  1   force =     0.00000000    0.00000000    0.00000000
     atom    4 type  1   force =     0.00000000    0.00000000    0.00000000
     atom    5 type  1   force =     0.00000000    0.00000000    0.00000000
     atom    6 type  1   force =     0.00000000    0.00000000    0.00000000
     atom    7 type  1   force =     0.00000000    0.00000000    0.00000000
     atom    8 type  1   force =     0.00000000    0.00000000    0.00000000
     atom    9 type  3   force =     0.00000000    0.00000000    0.00000000
     atom   10 type  3   force =     0.00000000    0.00000000    0.00000000
     atom   11 type  3   force =     0.00000000    0.00000000    0.00000000
     atom   12 type  3   force =     0.00000000    0.00000000    0.00000000
     atom   13 type  3   force =     0.00000000    0.00000000    0.00000000
     atom   14 type  3   force =     0.00000000    0.00000000    0.00000000
     atom   15 type  3   force =     0.00000000    0.00000000    0.00000000
     atom   16 type  3   force =     0.00000000    0.00000000    0.00000000
     atom   17 type  2   force =     0.00000000    0.00000000    0.00000000
     atom   18 type  2   force =     0.00000000    0.00000000    0.00000000
     atom   19 type  2   force =     0.00000000    0.00000000    0.00000000
     atom   20 type  2   force =     0.00000000    0.00000000    0.00000000
     atom   21 type  2   force =     0.00000000    0.00000000    0.00000000
     atom   22 type  2   force =     0.00000000    0.00000000    0.00000000
     atom   23 type  2   force =     0.00000000    0.00000000    0.00000000
     atom   24 type  2   force =     0.00000000    0.00000000    0.00000000
     atom   25 type  2   force =     0.00000000    0.00000000    0.00000000
     atom   26 type  2   force =     0.00000000    0.00000000    0.00000000
     atom   27 type  2   force =     0.00000000    0.00000000    0.00000000
     atom   28 type  2   force =     0.00000000    0.00000000    0.00000000
     atom   29 type  2   force =     0.00000000    0.00000000    0.00000000
     atom   30 type  2   force =     0.00000000    0.00000000    0.00000000
     atom   31 type  2   force =     0.00000000    0.00000000    0.00000000
     atom   32 type  2   force =     0.00000000    0.00000000    0.00000000
     atom   33 type  2   force =     0.00000000    0.00000000    0.00000000
     atom   34 type  2   force =     0.00000000    0.00000000    0.00000000
     atom   35 type  2   force =     0.00000000    0.00000000    0.00000000
     atom   36 type  2   force =     0.00000000    0.00000000    0.00000000
     atom   37 type  2   force =     0.00000000    0.00000000    0.00000000
     atom   38 type  2   force =     0.00000000    0.00000000    0.00000000
     atom   39 type  2   force =     0.00000000    0.00000000    0.00000000
     atom   40 type  2   force =     0.00000000    0.00000000    0.00000000
     The SCF correction term to forces
     atom    1 type  1   force =     0.00000254    0.00000254    0.00000254
     atom    2 type  1   force =     0.00000254    0.00000254   -0.00000254
     atom    3 type  1   force =     0.00000254   -0.00000254    0.00000254
     atom    4 type  1   force =     0.00000254   -0.00000254   -0.00000254
     atom    5 type  1   force =    -0.00000254    0.00000254    0.00000254
     atom    6 type  1   force =    -0.00000254    0.00000254   -0.00000254
     atom    7 type  1   force =    -0.00000254   -0.00000254    0.00000254
     atom    8 type  1   force =    -0.00000254   -0.00000254   -0.00000254
     atom    9 type  3   force =    -0.00000000    0.00000000   -0.00000000
     atom   10 type  3   force =    -0.00000000    0.00000000   -0.00000000
     atom   11 type  3   force =    -0.00000000    0.00000000   -0.00000000
     atom   12 type  3   force =    -0.00000000    0.00000000    0.00000000
     atom   13 type  3   force =     0.00000000    0.00000000   -0.00000000
     atom   14 type  3   force =     0.00000000    0.00000000    0.00000000
     atom   15 type  3   force =     0.00000000    0.00000000    0.00000000
     atom   16 type  3   force =     0.00000000   -0.00000000    0.00000000
     atom   17 type  2   force =     0.00000000   -0.00000000   -0.00000551
     atom   18 type  2   force =     0.00000000   -0.00000000    0.00000551
     atom   19 type  2   force =     0.00000000    0.00000000    0.00000269
     atom   20 type  2   force =     0.00000000    0.00000000   -0.00000269
     atom   21 type  2   force =     0.00000000    0.00000000    0.00000269
     atom   22 type  2   force =     0.00000000    0.00000000   -0.00000269
     atom   23 type  2   force =     0.00000000    0.00000000    0.00001184
     atom   24 type  2   force =     0.00000000    0.00000000   -0.00001184
     atom   25 type  2   force =     0.00000000   -0.00000551   -0.00000000
     atom   26 type  2   force =     0.00000000    0.00000269    0.00000000
     atom   27 type  2   force =     0.00000000    0.00000551    0.00000000
     atom   28 type  2   force =     0.00000000   -0.00000269    0.00000000
     atom   29 type  2   force =     0.00000000    0.00000269   -0.00000000
     atom   30 type  2   force =     0.00000000    0.00001184   -0.00000000
     atom   31 type  2   force =     0.00000000   -0.00000269    0.00000000
     atom   32 type  2   force =     0.00000000   -0.00001184    0.00000000
     atom   33 type  2   force =    -0.00000551    0.00000000    0.00000000
     atom   34 type  2   force =     0.00000269    0.00000000    0.00000000
     atom   35 type  2   force =     0.00000269    0.00000000   -0.00000000
     atom   36 type  2   force =     0.00001184    0.00000000   -0.00000000
     atom   37 type  2   force =     0.00000551    0.00000000   -0.00000000
     atom   38 type  2   force =    -0.00000269    0.00000000    0.00000000
     atom   39 type  2   force =    -0.00000269    0.00000000   -0.00000000
     atom   40 type  2   force =    -0.00001184    0.00000000   -0.00000000

     Total force =     0.000025     Total SCF correction =     0.000036
     SCF correction compared to forces is large: reduce conv_thr to get better values


     Computing stress (Cartesian axis) and pressure

          total   stress  (Ry/bohr**3)                   (kbar)     P=       -4.15
  -0.00002821   0.00000000   0.00000000           -4.15        0.00        0.00
   0.00000000  -0.00002821   0.00000000            0.00       -4.15        0.00
   0.00000000   0.00000000  -0.00002821            0.00        0.00       -4.15

     kinetic stress (kbar)   3422.95      0.00      0.00
                                0.00   3422.95      0.00
                                0.00      0.00   3422.95

     local   stress (kbar)   -383.32      0.00     -0.00
                                0.00   -383.32     -0.00
                               -0.00     -0.00   -383.32

     nonloc. stress (kbar)    933.98      0.00      0.00
                                0.00    933.98      0.00
                                0.00      0.00    933.98

     hartree stress (kbar)   1917.97     -0.00     -0.00
                               -0.00   1917.97     -0.00
                               -0.00     -0.00   1917.97

     exc-cor stress (kbar)  12007.63      0.00      0.00
                                0.00  12007.63      0.00
                                0.00      0.00  12007.63

     corecor stress (kbar) -13607.32      0.00      0.00
                                0.00 -13607.32      0.00
                                0.00      0.00 -13607.32

     ewald   stress (kbar)  -4296.03     -0.00      0.00
                               -0.00  -4296.03     -0.00
                                0.00     -0.00  -4296.03

     hubbard stress (kbar)      0.00      0.00      0.00
                                0.00      0.00      0.00
                                0.00      0.00      0.00

     DFT-D   stress (kbar)      0.00      0.00      0.00
                                0.00      0.00      0.00
                                0.00      0.00      0.00

     XDM     stress (kbar)      0.00      0.00      0.00
                                0.00      0.00      0.00
                                0.00      0.00      0.00

     dft-nl  stress (kbar)      0.00      0.00      0.00
                                0.00      0.00      0.00
                                0.00      0.00      0.00

     TS-vdW  stress (kbar)      0.00      0.00      0.00
                                0.00      0.00      0.00
                                0.00      0.00      0.00



     Writing output data file ../../out/aiida.save/

     init_run     :    148.85s CPU    151.68s WALL (       1 calls)
     electrons    :   4741.29s CPU   4797.19s WALL (       1 calls)
     forces       :    123.05s CPU    125.82s WALL (       1 calls)
     stress       :    196.10s CPU    203.87s WALL (       1 calls)

     Called by init_run:
     wfcinit      :    127.96s CPU    128.31s WALL (       1 calls)
     wfcinit:atom :      0.17s CPU      0.29s WALL (       4 calls)
     wfcinit:wfcr :    126.32s CPU    126.44s WALL (       4 calls)
     potinit      :      4.08s CPU      4.30s WALL (       1 calls)
     hinit0       :      1.65s CPU      1.71s WALL (       1 calls)

     Called by electrons:
     c_bands      :   4060.30s CPU   4067.14s WALL (      11 calls)
     sum_band     :    496.26s CPU    522.90s WALL (      11 calls)
     v_of_rho     :     17.77s CPU     19.34s WALL (      11 calls)
     v_h          :      1.14s CPU      1.18s WALL (      11 calls)
     v_xc         :     19.77s CPU     21.62s WALL (      13 calls)
     newd         :    157.89s CPU    181.00s WALL (      11 calls)
     PAW_pot      :     23.49s CPU     23.50s WALL (      11 calls)
     mix_rho      :      2.23s CPU      2.23s WALL (      11 calls)

     Called by c_bands:
     init_us_2    :      4.43s CPU      4.48s WALL (     100 calls)
     cegterg      :   4035.94s CPU   4042.75s WALL (      44 calls)

     Called by sum_band:
     sum_band:wei :      0.01s CPU      0.01s WALL (      11 calls)
     sum_band:loo :    264.35s CPU    264.43s WALL (      11 calls)
     sum_band:buf :      0.77s CPU      0.77s WALL (      44 calls)
     sum_band:ini :      1.94s CPU      1.94s WALL (      44 calls)
     sum_band:cal :    198.99s CPU    199.03s WALL (      44 calls)
     sum_band:bec :      0.13s CPU      0.13s WALL (      44 calls)
     addusdens    :    229.57s CPU    256.09s WALL (      11 calls)
     addusd:skk   :      2.62s CPU      4.50s WALL (      33 calls)
     addusd:dgemm :    156.68s CPU    176.96s WALL (      33 calls)
     addusd:qvan2 :     65.25s CPU     65.26s WALL (      33 calls)

     Called by *egterg:
     cdiaghg      :     48.63s CPU     48.64s WALL (     264 calls)
     cegterg:over :    546.24s CPU    546.30s WALL (     224 calls)
     cegterg:upda :    338.60s CPU    339.54s WALL (     224 calls)
     cegterg:last :    840.77s CPU    840.87s WALL (      98 calls)
     h_psi        :   1554.57s CPU   1556.69s WALL (     272 calls)
     s_psi        :    607.84s CPU    607.91s WALL (     272 calls)
     g_psi        :      5.62s CPU      5.63s WALL (     224 calls)

     Called by h_psi:
     h_psi:calbec :    560.89s CPU    560.96s WALL (     272 calls)
     vloc_psi     :    384.53s CPU    384.79s WALL (     272 calls)
     add_vuspsi   :    606.94s CPU    607.06s WALL (     272 calls)

     General routines
     calbec       :    853.04s CPU    853.17s WALL (     336 calls)
     fft          :     12.21s CPU     12.21s WALL (     167 calls)
     ffts         :      0.17s CPU      0.17s WALL (      22 calls)
     fftw         :    391.85s CPU    392.09s WALL (   61408 calls)
     interpolate  :      1.02s CPU      1.04s WALL (      11 calls)

     Parallel routines

     PAW routines
     PAW_pot      :     23.49s CPU     23.50s WALL (      11 calls)
     PAW_symme    :      0.05s CPU      0.05s WALL (      22 calls)

     PWSCF        :      1h26m CPU      1h27m WALL


   This run was terminated on:  17:38: 2   1Apr2024            

=------------------------------------------------------------------------------=
   JOB DONE.
=------------------------------------------------------------------------------=
