### Running on host: fes33

     Program PWSCF v.6.7MaX starts on  2Apr2024 at  3:51:40 

     This program is part of the open-source Quantum ESPRESSO suite
     for quantum simulation of materials; please cite
         "P. Giannozzi et al., J. Phys.:Condens. Matter 21 395502 (2009);
         "P. Giannozzi et al., J. Phys.:Condens. Matter 29 465901 (2017);
          URL http://www.quantum-espresso.org", 
     in publications or presentations arising from this work. More details at
     http://www.quantum-espresso.org/quote

     Parallel version (MPI), running on     1 processors

     MPI processes distributed on     1 nodes
     Reading input from pwscf_ecutwfc-44.in

     Current dimensions of program PWSCF are:
     Max number of different atomic species (ntypx) = 10
     Max number of k-points (npk) =  40000
     Max angular momentum in pseudopotentials (lmaxx) =  3
     file Pb.pbe-dn-kjpaw_psl.0.2.2.UPF: wavefunction(s)  6S renormalized

     Subspace diagonalization in iterative solution of the eigenvalue problem:
     a serial algorithm will be used

     Found symmetry operation: I + (  0.0000  0.0000  0.5000)
     This is a supercell, fractional translations are disabled
     Message from routine setup:
     using ibrav=0 with symmetry is DISCOURAGED, use correct ibrav instead

     G-vector sticks info
     --------------------
     sticks:   dense  smooth     PW     G-vecs:    dense   smooth      PW
     Sum       14817    8121   2129              1356433   552629   74125



     bravais-lattice index     =            0
     lattice parameter (alat)  =      24.1188  a.u.
     unit-cell volume          =   14030.3801 (a.u.)^3
     number of atoms/cell      =           40
     number of atomic types    =            3
     number of electrons       =       352.00
     number of Kohn-Sham states=          211
     kinetic-energy cutoff     =      44.0000  Ry
     charge density cutoff     =     320.0000  Ry
     scf convergence threshold =      8.0E-09
     mixing beta               =       0.4000
     number of iterations used =            8  plain     mixing
     Exchange-correlation= SLA  PW   PBX  PBC
                           (   1   4   3   4   0   0   0)

     celldm(1)=  24.118843  celldm(2)=   0.000000  celldm(3)=   0.000000
     celldm(4)=   0.000000  celldm(5)=   0.000000  celldm(6)=   0.000000

     crystal axes: (cart. coord. in units of alat)
               a(1) = (   1.000000   0.000000   0.000000 )  
               a(2) = (   0.000000   1.000000   0.000000 )  
               a(3) = (   0.000000   0.000000   1.000000 )  

     reciprocal axes: (cart. coord. in units 2 pi/alat)
               b(1) = (  1.000000  0.000000  0.000000 )  
               b(2) = (  0.000000  1.000000  0.000000 )  
               b(3) = (  0.000000  0.000000  1.000000 )  


     PseudoPot. # 1 for Cs read from file:
     ../../pseudo/Cs_pbe_v1.uspp.F.UPF
     MD5 check sum: 3476d69cb178dfad3ffaa59df4e07ca4
     Pseudo is Ultrasoft + core correction, Zval =  9.0
     Generated by new atomic code, or converted to UPF format
     Using radial grid of  905 points,  6 beta functions with: 
                l(1) =   0
                l(2) =   0
                l(3) =   1
                l(4) =   1
                l(5) =   2
                l(6) =   2
     Q(r) pseudized with  6 coefficients,  rinner =    1.500   1.500   1.500
                                                       1.500   1.500

     PseudoPot. # 2 for I  read from file:
     ../../pseudo/I.pbe-n-kjpaw_psl.0.2.UPF
     MD5 check sum: d4ef18d9c8f18dc85e5843bca1e50dc0
     Pseudo is Projector augmented-wave + core cor, Zval =  7.0
     Generated using "atomic" code by A. Dal Corso  v.5.0.99 svn rev. 10869
     Shape of augmentation charge: PSQ
     Using radial grid of 1247 points,  4 beta functions with: 
                l(1) =   0
                l(2) =   0
                l(3) =   1
                l(4) =   1
     Q(r) pseudized with 0 coefficients 


     PseudoPot. # 3 for Pb read from file:
     ../../pseudo/Pb.pbe-dn-kjpaw_psl.0.2.2.UPF
     MD5 check sum: 9d431e6316058b74ade52399a6cf67da
     Pseudo is Projector augmented-wave + core cor, Zval = 14.0
     Generated using "atomic" code by A. Dal Corso  v.5.0.99 svn rev. 10869
     Shape of augmentation charge: PSQ
     Using radial grid of 1281 points,  6 beta functions with: 
                l(1) =   0
                l(2) =   0
                l(3) =   1
                l(4) =   1
                l(5) =   2
                l(6) =   2
     Q(r) pseudized with 0 coefficients 


     atomic species   valence    mass     pseudopotential
        Cs             9.00   132.90545     Cs( 1.00)
        I              7.00   126.90447     I ( 1.00)
        Pb            14.00   207.20000     Pb( 1.00)

     48 Sym. Ops., with inversion, found


                                    s                        frac. trans.

      isym =  1     identity                                     

 cryst.   s( 1) = (     1          0          0      )
                  (     0          1          0      )
                  (     0          0          1      )

 cart.    s( 1) = (  1.0000000  0.0000000  0.0000000 )
                  (  0.0000000  1.0000000  0.0000000 )
                  (  0.0000000  0.0000000  1.0000000 )


      isym =  2     180 deg rotation - cart. axis [0,0,1]        

 cryst.   s( 2) = (    -1          0          0      )
                  (     0         -1          0      )
                  (     0          0          1      )

 cart.    s( 2) = ( -1.0000000  0.0000000  0.0000000 )
                  (  0.0000000 -1.0000000  0.0000000 )
                  (  0.0000000  0.0000000  1.0000000 )


      isym =  3     180 deg rotation - cart. axis [0,1,0]        

 cryst.   s( 3) = (    -1          0          0      )
                  (     0          1          0      )
                  (     0          0         -1      )

 cart.    s( 3) = ( -1.0000000  0.0000000  0.0000000 )
                  (  0.0000000  1.0000000  0.0000000 )
                  (  0.0000000  0.0000000 -1.0000000 )


      isym =  4     180 deg rotation - cart. axis [1,0,0]        

 cryst.   s( 4) = (     1          0          0      )
                  (     0         -1          0      )
                  (     0          0         -1      )

 cart.    s( 4) = (  1.0000000  0.0000000  0.0000000 )
                  (  0.0000000 -1.0000000  0.0000000 )
                  (  0.0000000  0.0000000 -1.0000000 )


      isym =  5     180 deg rotation - cart. axis [1,1,0]        

 cryst.   s( 5) = (     0          1          0      )
                  (     1          0          0      )
                  (     0          0         -1      )

 cart.    s( 5) = (  0.0000000  1.0000000  0.0000000 )
                  (  1.0000000  0.0000000  0.0000000 )
                  (  0.0000000  0.0000000 -1.0000000 )


      isym =  6     180 deg rotation - cart. axis [1,-1,0]       

 cryst.   s( 6) = (     0         -1          0      )
                  (    -1          0          0      )
                  (     0          0         -1      )

 cart.    s( 6) = (  0.0000000 -1.0000000  0.0000000 )
                  ( -1.0000000  0.0000000  0.0000000 )
                  (  0.0000000  0.0000000 -1.0000000 )


      isym =  7      90 deg rotation - cart. axis [0,0,-1]       

 cryst.   s( 7) = (     0         -1          0      )
                  (     1          0          0      )
                  (     0          0          1      )

 cart.    s( 7) = (  0.0000000  1.0000000  0.0000000 )
                  ( -1.0000000  0.0000000  0.0000000 )
                  (  0.0000000  0.0000000  1.0000000 )


      isym =  8      90 deg rotation - cart. axis [0,0,1]        

 cryst.   s( 8) = (     0          1          0      )
                  (    -1          0          0      )
                  (     0          0          1      )

 cart.    s( 8) = (  0.0000000 -1.0000000  0.0000000 )
                  (  1.0000000  0.0000000  0.0000000 )
                  (  0.0000000  0.0000000  1.0000000 )


      isym =  9     180 deg rotation - cart. axis [1,0,1]        

 cryst.   s( 9) = (     0          0          1      )
                  (     0         -1          0      )
                  (     1          0          0      )

 cart.    s( 9) = (  0.0000000  0.0000000  1.0000000 )
                  (  0.0000000 -1.0000000  0.0000000 )
                  (  1.0000000  0.0000000  0.0000000 )


      isym = 10     180 deg rotation - cart. axis [-1,0,1]       

 cryst.   s(10) = (     0          0         -1      )
                  (     0         -1          0      )
                  (    -1          0          0      )

 cart.    s(10) = (  0.0000000  0.0000000 -1.0000000 )
                  (  0.0000000 -1.0000000  0.0000000 )
                  ( -1.0000000  0.0000000  0.0000000 )


      isym = 11      90 deg rotation - cart. axis [0,1,0]        

 cryst.   s(11) = (     0          0         -1      )
                  (     0          1          0      )
                  (     1          0          0      )

 cart.    s(11) = (  0.0000000  0.0000000  1.0000000 )
                  (  0.0000000  1.0000000  0.0000000 )
                  ( -1.0000000  0.0000000  0.0000000 )


      isym = 12      90 deg rotation - cart. axis [0,-1,0]       

 cryst.   s(12) = (     0          0          1      )
                  (     0          1          0      )
                  (    -1          0          0      )

 cart.    s(12) = (  0.0000000  0.0000000 -1.0000000 )
                  (  0.0000000  1.0000000  0.0000000 )
                  (  1.0000000  0.0000000  0.0000000 )


      isym = 13     180 deg rotation - cart. axis [0,1,1]        

 cryst.   s(13) = (    -1          0          0      )
                  (     0          0          1      )
                  (     0          1          0      )

 cart.    s(13) = ( -1.0000000  0.0000000  0.0000000 )
                  (  0.0000000  0.0000000  1.0000000 )
                  (  0.0000000  1.0000000  0.0000000 )


      isym = 14     180 deg rotation - cart. axis [0,1,-1]       

 cryst.   s(14) = (    -1          0          0      )
                  (     0          0         -1      )
                  (     0         -1          0      )

 cart.    s(14) = ( -1.0000000  0.0000000  0.0000000 )
                  (  0.0000000  0.0000000 -1.0000000 )
                  (  0.0000000 -1.0000000  0.0000000 )


      isym = 15      90 deg rotation - cart. axis [-1,0,0]       

 cryst.   s(15) = (     1          0          0      )
                  (     0          0         -1      )
                  (     0          1          0      )

 cart.    s(15) = (  1.0000000  0.0000000  0.0000000 )
                  (  0.0000000  0.0000000  1.0000000 )
                  (  0.0000000 -1.0000000  0.0000000 )


      isym = 16      90 deg rotation - cart. axis [1,0,0]        

 cryst.   s(16) = (     1          0          0      )
                  (     0          0          1      )
                  (     0         -1          0      )

 cart.    s(16) = (  1.0000000  0.0000000  0.0000000 )
                  (  0.0000000  0.0000000 -1.0000000 )
                  (  0.0000000  1.0000000  0.0000000 )


      isym = 17     120 deg rotation - cart. axis [-1,-1,-1]     

 cryst.   s(17) = (     0          0          1      )
                  (     1          0          0      )
                  (     0          1          0      )

 cart.    s(17) = (  0.0000000  1.0000000  0.0000000 )
                  (  0.0000000  0.0000000  1.0000000 )
                  (  1.0000000  0.0000000  0.0000000 )


      isym = 18     120 deg rotation - cart. axis [-1,1,1]       

 cryst.   s(18) = (     0          0         -1      )
                  (    -1          0          0      )
                  (     0          1          0      )

 cart.    s(18) = (  0.0000000 -1.0000000  0.0000000 )
                  (  0.0000000  0.0000000  1.0000000 )
                  ( -1.0000000  0.0000000  0.0000000 )


      isym = 19     120 deg rotation - cart. axis [1,1,-1]       

 cryst.   s(19) = (     0          0         -1      )
                  (     1          0          0      )
                  (     0         -1          0      )

 cart.    s(19) = (  0.0000000  1.0000000  0.0000000 )
                  (  0.0000000  0.0000000 -1.0000000 )
                  ( -1.0000000  0.0000000  0.0000000 )


      isym = 20     120 deg rotation - cart. axis [1,-1,1]       

 cryst.   s(20) = (     0          0          1      )
                  (    -1          0          0      )
                  (     0         -1          0      )

 cart.    s(20) = (  0.0000000 -1.0000000  0.0000000 )
                  (  0.0000000  0.0000000 -1.0000000 )
                  (  1.0000000  0.0000000  0.0000000 )


      isym = 21     120 deg rotation - cart. axis [1,1,1]        

 cryst.   s(21) = (     0          1          0      )
                  (     0          0          1      )
                  (     1          0          0      )

 cart.    s(21) = (  0.0000000  0.0000000  1.0000000 )
                  (  1.0000000  0.0000000  0.0000000 )
                  (  0.0000000  1.0000000  0.0000000 )


      isym = 22     120 deg rotation - cart. axis [-1,1,-1]      

 cryst.   s(22) = (     0         -1          0      )
                  (     0          0         -1      )
                  (     1          0          0      )

 cart.    s(22) = (  0.0000000  0.0000000  1.0000000 )
                  ( -1.0000000  0.0000000  0.0000000 )
                  (  0.0000000 -1.0000000  0.0000000 )


      isym = 23     120 deg rotation - cart. axis [1,-1,-1]      

 cryst.   s(23) = (     0         -1          0      )
                  (     0          0          1      )
                  (    -1          0          0      )

 cart.    s(23) = (  0.0000000  0.0000000 -1.0000000 )
                  ( -1.0000000  0.0000000  0.0000000 )
                  (  0.0000000  1.0000000  0.0000000 )


      isym = 24     120 deg rotation - cart. axis [-1,-1,1]      

 cryst.   s(24) = (     0          1          0      )
                  (     0          0         -1      )
                  (    -1          0          0      )

 cart.    s(24) = (  0.0000000  0.0000000 -1.0000000 )
                  (  1.0000000  0.0000000  0.0000000 )
                  (  0.0000000 -1.0000000  0.0000000 )


      isym = 25     inversion                                    

 cryst.   s(25) = (    -1          0          0      )
                  (     0         -1          0      )
                  (     0          0         -1      )

 cart.    s(25) = ( -1.0000000  0.0000000  0.0000000 )
                  (  0.0000000 -1.0000000  0.0000000 )
                  (  0.0000000  0.0000000 -1.0000000 )


      isym = 26     inv. 180 deg rotation - cart. axis [0,0,1]   

 cryst.   s(26) = (     1          0          0      )
                  (     0          1          0      )
                  (     0          0         -1      )

 cart.    s(26) = (  1.0000000  0.0000000  0.0000000 )
                  (  0.0000000  1.0000000  0.0000000 )
                  (  0.0000000  0.0000000 -1.0000000 )


      isym = 27     inv. 180 deg rotation - cart. axis [0,1,0]   

 cryst.   s(27) = (     1          0          0      )
                  (     0         -1          0      )
                  (     0          0          1      )

 cart.    s(27) = (  1.0000000  0.0000000  0.0000000 )
                  (  0.0000000 -1.0000000  0.0000000 )
                  (  0.0000000  0.0000000  1.0000000 )


      isym = 28     inv. 180 deg rotation - cart. axis [1,0,0]   

 cryst.   s(28) = (    -1          0          0      )
                  (     0          1          0      )
                  (     0          0          1      )

 cart.    s(28) = ( -1.0000000  0.0000000  0.0000000 )
                  (  0.0000000  1.0000000  0.0000000 )
                  (  0.0000000  0.0000000  1.0000000 )


      isym = 29     inv. 180 deg rotation - cart. axis [1,1,0]   

 cryst.   s(29) = (     0         -1          0      )
                  (    -1          0          0      )
                  (     0          0          1      )

 cart.    s(29) = (  0.0000000 -1.0000000  0.0000000 )
                  ( -1.0000000  0.0000000  0.0000000 )
                  (  0.0000000  0.0000000  1.0000000 )


      isym = 30     inv. 180 deg rotation - cart. axis [1,-1,0]  

 cryst.   s(30) = (     0          1          0      )
                  (     1          0          0      )
                  (     0          0          1      )

 cart.    s(30) = (  0.0000000  1.0000000  0.0000000 )
                  (  1.0000000  0.0000000  0.0000000 )
                  (  0.0000000  0.0000000  1.0000000 )


      isym = 31     inv.  90 deg rotation - cart. axis [0,0,-1]  

 cryst.   s(31) = (     0          1          0      )
                  (    -1          0          0      )
                  (     0          0         -1      )

 cart.    s(31) = (  0.0000000 -1.0000000  0.0000000 )
                  (  1.0000000  0.0000000  0.0000000 )
                  (  0.0000000  0.0000000 -1.0000000 )


      isym = 32     inv.  90 deg rotation - cart. axis [0,0,1]   

 cryst.   s(32) = (     0         -1          0      )
                  (     1          0          0      )
                  (     0          0         -1      )

 cart.    s(32) = (  0.0000000  1.0000000  0.0000000 )
                  ( -1.0000000  0.0000000  0.0000000 )
                  (  0.0000000  0.0000000 -1.0000000 )


      isym = 33     inv. 180 deg rotation - cart. axis [1,0,1]   

 cryst.   s(33) = (     0          0         -1      )
                  (     0          1          0      )
                  (    -1          0          0      )

 cart.    s(33) = (  0.0000000  0.0000000 -1.0000000 )
                  (  0.0000000  1.0000000  0.0000000 )
                  ( -1.0000000  0.0000000  0.0000000 )


      isym = 34     inv. 180 deg rotation - cart. axis [-1,0,1]  

 cryst.   s(34) = (     0          0          1      )
                  (     0          1          0      )
                  (     1          0          0      )

 cart.    s(34) = (  0.0000000  0.0000000  1.0000000 )
                  (  0.0000000  1.0000000  0.0000000 )
                  (  1.0000000  0.0000000  0.0000000 )


      isym = 35     inv.  90 deg rotation - cart. axis [0,1,0]   

 cryst.   s(35) = (     0          0          1      )
                  (     0         -1          0      )
                  (    -1          0          0      )

 cart.    s(35) = (  0.0000000  0.0000000 -1.0000000 )
                  (  0.0000000 -1.0000000  0.0000000 )
                  (  1.0000000  0.0000000  0.0000000 )


      isym = 36     inv.  90 deg rotation - cart. axis [0,-1,0]  

 cryst.   s(36) = (     0          0         -1      )
                  (     0         -1          0      )
                  (     1          0          0      )

 cart.    s(36) = (  0.0000000  0.0000000  1.0000000 )
                  (  0.0000000 -1.0000000  0.0000000 )
                  ( -1.0000000  0.0000000  0.0000000 )


      isym = 37     inv. 180 deg rotation - cart. axis [0,1,1]   

 cryst.   s(37) = (     1          0          0      )
                  (     0          0         -1      )
                  (     0         -1          0      )

 cart.    s(37) = (  1.0000000  0.0000000  0.0000000 )
                  (  0.0000000  0.0000000 -1.0000000 )
                  (  0.0000000 -1.0000000  0.0000000 )


      isym = 38     inv. 180 deg rotation - cart. axis [0,1,-1]  

 cryst.   s(38) = (     1          0          0      )
                  (     0          0          1      )
                  (     0          1          0      )

 cart.    s(38) = (  1.0000000  0.0000000  0.0000000 )
                  (  0.0000000  0.0000000  1.0000000 )
                  (  0.0000000  1.0000000  0.0000000 )


      isym = 39     inv.  90 deg rotation - cart. axis [-1,0,0]  

 cryst.   s(39) = (    -1          0          0      )
                  (     0          0          1      )
                  (     0         -1          0      )

 cart.    s(39) = ( -1.0000000  0.0000000  0.0000000 )
                  (  0.0000000  0.0000000 -1.0000000 )
                  (  0.0000000  1.0000000  0.0000000 )


      isym = 40     inv.  90 deg rotation - cart. axis [1,0,0]   

 cryst.   s(40) = (    -1          0          0      )
                  (     0          0         -1      )
                  (     0          1          0      )

 cart.    s(40) = ( -1.0000000  0.0000000  0.0000000 )
                  (  0.0000000  0.0000000  1.0000000 )
                  (  0.0000000 -1.0000000  0.0000000 )


      isym = 41     inv. 120 deg rotation - cart. axis [-1,-1,-1]

 cryst.   s(41) = (     0          0         -1      )
                  (    -1          0          0      )
                  (     0         -1          0      )

 cart.    s(41) = (  0.0000000 -1.0000000  0.0000000 )
                  (  0.0000000  0.0000000 -1.0000000 )
                  ( -1.0000000  0.0000000  0.0000000 )


      isym = 42     inv. 120 deg rotation - cart. axis [-1,1,1]  

 cryst.   s(42) = (     0          0          1      )
                  (     1          0          0      )
                  (     0         -1          0      )

 cart.    s(42) = (  0.0000000  1.0000000  0.0000000 )
                  (  0.0000000  0.0000000 -1.0000000 )
                  (  1.0000000  0.0000000  0.0000000 )


      isym = 43     inv. 120 deg rotation - cart. axis [1,1,-1]  

 cryst.   s(43) = (     0          0          1      )
                  (    -1          0          0      )
                  (     0          1          0      )

 cart.    s(43) = (  0.0000000 -1.0000000  0.0000000 )
                  (  0.0000000  0.0000000  1.0000000 )
                  (  1.0000000  0.0000000  0.0000000 )


      isym = 44     inv. 120 deg rotation - cart. axis [1,-1,1]  

 cryst.   s(44) = (     0          0         -1      )
                  (     1          0          0      )
                  (     0          1          0      )

 cart.    s(44) = (  0.0000000  1.0000000  0.0000000 )
                  (  0.0000000  0.0000000  1.0000000 )
                  ( -1.0000000  0.0000000  0.0000000 )


      isym = 45     inv. 120 deg rotation - cart. axis [1,1,1]   

 cryst.   s(45) = (     0         -1          0      )
                  (     0          0         -1      )
                  (    -1          0          0      )

 cart.    s(45) = (  0.0000000  0.0000000 -1.0000000 )
                  ( -1.0000000  0.0000000  0.0000000 )
                  (  0.0000000 -1.0000000  0.0000000 )


      isym = 46     inv. 120 deg rotation - cart. axis [-1,1,-1] 

 cryst.   s(46) = (     0          1          0      )
                  (     0          0          1      )
                  (    -1          0          0      )

 cart.    s(46) = (  0.0000000  0.0000000 -1.0000000 )
                  (  1.0000000  0.0000000  0.0000000 )
                  (  0.0000000  1.0000000  0.0000000 )


      isym = 47     inv. 120 deg rotation - cart. axis [1,-1,-1] 

 cryst.   s(47) = (     0          1          0      )
                  (     0          0         -1      )
                  (     1          0          0      )

 cart.    s(47) = (  0.0000000  0.0000000  1.0000000 )
                  (  1.0000000  0.0000000  0.0000000 )
                  (  0.0000000 -1.0000000  0.0000000 )


      isym = 48     inv. 120 deg rotation - cart. axis [-1,-1,1] 

 cryst.   s(48) = (     0         -1          0      )
                  (     0          0          1      )
                  (     1          0          0      )

 cart.    s(48) = (  0.0000000  0.0000000  1.0000000 )
                  ( -1.0000000  0.0000000  0.0000000 )
                  (  0.0000000  1.0000000  0.0000000 )


   Cartesian axes

     site n.     atom                  positions (alat units)
         1           Cs  tau(   1) = (   0.2500001   0.2500001   0.2500001  )
         2           Cs  tau(   2) = (   0.2500001   0.2500001   0.7499999  )
         3           Cs  tau(   3) = (   0.2500001   0.7499999   0.2500001  )
         4           Cs  tau(   4) = (   0.2500001   0.7499999   0.7499999  )
         5           Cs  tau(   5) = (   0.7499999   0.2500001   0.2500001  )
         6           Cs  tau(   6) = (   0.7499999   0.2500001   0.7499999  )
         7           Cs  tau(   7) = (   0.7499999   0.7499999   0.2500001  )
         8           Cs  tau(   8) = (   0.7499999   0.7499999   0.7499999  )
         9           Pb  tau(   9) = (   0.0000000   0.0000000   0.0000000  )
        10           Pb  tau(  10) = (   0.0000000   0.0000000   0.5000000  )
        11           Pb  tau(  11) = (   0.0000000   0.5000000   0.0000000  )
        12           Pb  tau(  12) = (   0.0000000   0.5000000   0.5000000  )
        13           Pb  tau(  13) = (   0.5000000   0.0000000   0.0000000  )
        14           Pb  tau(  14) = (   0.5000000   0.0000000   0.5000000  )
        15           Pb  tau(  15) = (   0.5000000   0.5000000   0.0000000  )
        16           Pb  tau(  16) = (   0.5000000   0.5000000   0.5000000  )
        17           I   tau(  17) = (   0.0000000   0.0000000   0.2500016  )
        18           I   tau(  18) = (   0.0000000   0.0000000   0.7499984  )
        19           I   tau(  19) = (   0.0000000   0.5000000   0.2500017  )
        20           I   tau(  20) = (   0.0000000   0.5000000   0.7499983  )
        21           I   tau(  21) = (   0.5000000   0.0000000   0.2500017  )
        22           I   tau(  22) = (   0.5000000   0.0000000   0.7499983  )
        23           I   tau(  23) = (   0.5000000   0.5000000   0.2500017  )
        24           I   tau(  24) = (   0.5000000   0.5000000   0.7499983  )
        25           I   tau(  25) = (   0.0000000   0.2500016   0.0000000  )
        26           I   tau(  26) = (   0.0000000   0.2500017   0.5000000  )
        27           I   tau(  27) = (   0.0000000   0.7499984   0.0000000  )
        28           I   tau(  28) = (   0.0000000   0.7499983   0.5000000  )
        29           I   tau(  29) = (   0.5000000   0.2500017   0.0000000  )
        30           I   tau(  30) = (   0.5000000   0.2500017   0.5000000  )
        31           I   tau(  31) = (   0.5000000   0.7499983   0.0000000  )
        32           I   tau(  32) = (   0.5000000   0.7499983   0.5000000  )
        33           I   tau(  33) = (   0.2500016   0.0000000   0.0000000  )
        34           I   tau(  34) = (   0.2500017   0.0000000   0.5000000  )
        35           I   tau(  35) = (   0.2500017   0.5000000   0.0000000  )
        36           I   tau(  36) = (   0.2500017   0.5000000   0.5000000  )
        37           I   tau(  37) = (   0.7499984   0.0000000   0.0000000  )
        38           I   tau(  38) = (   0.7499983   0.0000000   0.5000000  )
        39           I   tau(  39) = (   0.7499983   0.5000000   0.0000000  )
        40           I   tau(  40) = (   0.7499983   0.5000000   0.5000000  )

   Crystallographic axes

     site n.     atom                  positions (cryst. coord.)
         1           Cs  tau(   1) = (  0.2500001  0.2500001  0.2500001  )
         2           Cs  tau(   2) = (  0.2500001  0.2500001  0.7499999  )
         3           Cs  tau(   3) = (  0.2500001  0.7499999  0.2500001  )
         4           Cs  tau(   4) = (  0.2500001  0.7499999  0.7499999  )
         5           Cs  tau(   5) = (  0.7499999  0.2500001  0.2500001  )
         6           Cs  tau(   6) = (  0.7499999  0.2500001  0.7499999  )
         7           Cs  tau(   7) = (  0.7499999  0.7499999  0.2500001  )
         8           Cs  tau(   8) = (  0.7499999  0.7499999  0.7499999  )
         9           Pb  tau(   9) = (  0.0000000  0.0000000  0.0000000  )
        10           Pb  tau(  10) = (  0.0000000  0.0000000  0.5000000  )
        11           Pb  tau(  11) = (  0.0000000  0.5000000  0.0000000  )
        12           Pb  tau(  12) = (  0.0000000  0.5000000  0.5000000  )
        13           Pb  tau(  13) = (  0.5000000  0.0000000  0.0000000  )
        14           Pb  tau(  14) = (  0.5000000  0.0000000  0.5000000  )
        15           Pb  tau(  15) = (  0.5000000  0.5000000  0.0000000  )
        16           Pb  tau(  16) = (  0.5000000  0.5000000  0.5000000  )
        17           I   tau(  17) = (  0.0000000  0.0000000  0.2500016  )
        18           I   tau(  18) = (  0.0000000  0.0000000  0.7499984  )
        19           I   tau(  19) = (  0.0000000  0.5000000  0.2500017  )
        20           I   tau(  20) = (  0.0000000  0.5000000  0.7499983  )
        21           I   tau(  21) = (  0.5000000  0.0000000  0.2500017  )
        22           I   tau(  22) = (  0.5000000  0.0000000  0.7499983  )
        23           I   tau(  23) = (  0.5000000  0.5000000  0.2500017  )
        24           I   tau(  24) = (  0.5000000  0.5000000  0.7499983  )
        25           I   tau(  25) = (  0.0000000  0.2500016  0.0000000  )
        26           I   tau(  26) = (  0.0000000  0.2500017  0.5000000  )
        27           I   tau(  27) = (  0.0000000  0.7499984  0.0000000  )
        28           I   tau(  28) = (  0.0000000  0.7499983  0.5000000  )
        29           I   tau(  29) = (  0.5000000  0.2500017  0.0000000  )
        30           I   tau(  30) = (  0.5000000  0.2500017  0.5000000  )
        31           I   tau(  31) = (  0.5000000  0.7499983  0.0000000  )
        32           I   tau(  32) = (  0.5000000  0.7499983  0.5000000  )
        33           I   tau(  33) = (  0.2500016  0.0000000  0.0000000  )
        34           I   tau(  34) = (  0.2500017  0.0000000  0.5000000  )
        35           I   tau(  35) = (  0.2500017  0.5000000  0.0000000  )
        36           I   tau(  36) = (  0.2500017  0.5000000  0.5000000  )
        37           I   tau(  37) = (  0.7499984  0.0000000  0.0000000  )
        38           I   tau(  38) = (  0.7499983  0.0000000  0.5000000  )
        39           I   tau(  39) = (  0.7499983  0.5000000  0.0000000  )
        40           I   tau(  40) = (  0.7499983  0.5000000  0.5000000  )

     number of k points=     4  Marzari-Vanderbilt smearing, width (Ry)=  0.0147
                       cart. coord. in units 2pi/alat
        k(    1) = (   0.0000000   0.0000000   0.0000000), wk =   0.0740741
        k(    2) = (   0.0000000   0.0000000   0.3333333), wk =   0.4444444
        k(    3) = (   0.0000000   0.3333333   0.3333333), wk =   0.8888889
        k(    4) = (   0.3333333   0.3333333   0.3333333), wk =   0.5925926

                       cryst. coord.
        k(    1) = (   0.0000000   0.0000000   0.0000000), wk =   0.0740741
        k(    2) = (   0.0000000   0.0000000   0.3333333), wk =   0.4444444
        k(    3) = (   0.0000000   0.3333333   0.3333333), wk =   0.8888889
        k(    4) = (   0.3333333   0.3333333   0.3333333), wk =   0.5925926

     Dense  grid:  1356433 G-vectors     FFT dimensions: ( 144, 144, 144)

     Smooth grid:   552629 G-vectors     FFT dimensions: ( 108, 108, 108)

     Dynamical RAM for                 wfc:     222.64 MB

     Dynamical RAM for     wfc (w. buffer):    1113.19 MB

     Dynamical RAM for           str. fact:      62.09 MB

     Dynamical RAM for           local pot:       0.00 MB

     Dynamical RAM for          nlocal pot:     506.48 MB

     Dynamical RAM for                qrad:       4.31 MB

     Dynamical RAM for          rho,v,vnew:     130.44 MB

     Dynamical RAM for               rhoin:      43.48 MB

     Dynamical RAM for            rho*nmix:     331.16 MB

     Dynamical RAM for           G-vectors:      81.83 MB

     Dynamical RAM for          h,s,v(r/c):       8.15 MB

     Dynamical RAM for          <psi|beta>:       1.55 MB

     Dynamical RAM for                 psi:     445.28 MB

     Dynamical RAM for                hpsi:     445.28 MB

     Dynamical RAM for                spsi:     445.28 MB

     Dynamical RAM for      wfcinit/wfcrot:     575.70 MB

     Dynamical RAM for           addusdens:    4346.48 MB

     Dynamical RAM for          addusforce:    5309.01 MB

     Dynamical RAM for         addusstress:    4160.20 MB

     Estimated static dynamical RAM per process >       2.41 GB

     Estimated max dynamical RAM per process >       7.60 GB

     Initial potential from superposition of free atoms

     starting charge  351.66429, renormalised to  352.00000
     Starting wfcs are  272 randomized atomic wfcs
     Checking if some PAW data can be deallocated... 

     total cpu time spent up to now is      354.0 secs

     Self-consistent Calculation

     iteration #  1     ecut=    44.00 Ry     beta= 0.40
     Davidson diagonalization with overlap
     ethr =  1.00E-02,  avg # of iterations =  2.8

     Threshold (ethr) on eigenvalues was too large:
     Diagonalizing with lowered threshold

     Davidson diagonalization with overlap
     ethr =  2.58E-04,  avg # of iterations =  7.2

     total cpu time spent up to now is     2133.1 secs

     total energy              =  -16565.70125097 Ry
     estimated scf accuracy    <       0.82186213 Ry

     iteration #  2     ecut=    44.00 Ry     beta= 0.40
     Davidson diagonalization with overlap
     ethr =  2.33E-04,  avg # of iterations =  2.0

     total cpu time spent up to now is     3052.6 secs

     total energy              =  -16565.82850771 Ry
     estimated scf accuracy    <       0.05286814 Ry

     iteration #  3     ecut=    44.00 Ry     beta= 0.40
     Davidson diagonalization with overlap
     ethr =  1.50E-05,  avg # of iterations = 18.2

     total cpu time spent up to now is     4645.2 secs

     total energy              =  -16565.85607827 Ry
     estimated scf accuracy    <       0.01521233 Ry

     iteration #  4     ecut=    44.00 Ry     beta= 0.40
     Davidson diagonalization with overlap
     ethr =  4.32E-06,  avg # of iterations =  4.5

     total cpu time spent up to now is     5592.3 secs

     total energy              =  -16565.85874301 Ry
     estimated scf accuracy    <       0.00217765 Ry

     iteration #  5     ecut=    44.00 Ry     beta= 0.40
     Davidson diagonalization with overlap
     ethr =  6.19E-07,  avg # of iterations =  8.5

     total cpu time spent up to now is     6605.3 secs

     total energy              =  -16565.85925447 Ry
     estimated scf accuracy    <       0.00029243 Ry

     iteration #  6     ecut=    44.00 Ry     beta= 0.40
     Davidson diagonalization with overlap
     ethr =  8.31E-08,  avg # of iterations =  4.8

     total cpu time spent up to now is     7614.5 secs

     total energy              =  -16565.85932438 Ry
     estimated scf accuracy    <       0.00010123 Ry

     iteration #  7     ecut=    44.00 Ry     beta= 0.40
     Davidson diagonalization with overlap
     ethr =  2.88E-08,  avg # of iterations =  4.8

     total cpu time spent up to now is     8624.7 secs

     total energy              =  -16565.85934908 Ry
     estimated scf accuracy    <       0.00001557 Ry

     iteration #  8     ecut=    44.00 Ry     beta= 0.40
     Davidson diagonalization with overlap
     ethr =  4.42E-09,  avg # of iterations =  5.5

     total cpu time spent up to now is     9552.4 secs

     total energy              =  -16565.85935187 Ry
     estimated scf accuracy    <       0.00000460 Ry

     iteration #  9     ecut=    44.00 Ry     beta= 0.40
     Davidson diagonalization with overlap
     ethr =  1.31E-09,  avg # of iterations =  5.2

     total cpu time spent up to now is    10580.3 secs

     total energy              =  -16565.85935329 Ry
     estimated scf accuracy    <       0.00000114 Ry

     iteration # 10     ecut=    44.00 Ry     beta= 0.40
     Davidson diagonalization with overlap
     ethr =  3.23E-10,  avg # of iterations =  3.8

     total cpu time spent up to now is    11432.2 secs

     total energy              =  -16565.85935339 Ry
     estimated scf accuracy    <       0.00000037 Ry

     iteration # 11     ecut=    44.00 Ry     beta= 0.40
     Davidson diagonalization with overlap
     ethr =  1.06E-10,  avg # of iterations =  4.5

     total cpu time spent up to now is    12383.7 secs

     total energy              =  -16565.85935347 Ry
     estimated scf accuracy    <          8.4E-09 Ry

     iteration # 12     ecut=    44.00 Ry     beta= 0.40
     Davidson diagonalization with overlap
     ethr =  2.38E-12,  avg # of iterations =  9.0

     total cpu time spent up to now is    14566.5 secs

     total energy              =  -16565.85935350 Ry
     estimated scf accuracy    <       0.00000001 Ry

     iteration # 13     ecut=    44.00 Ry     beta= 0.40
     Davidson diagonalization with overlap
     ethr =  2.38E-12,  avg # of iterations =  4.0

     total cpu time spent up to now is    15508.4 secs

     End of self-consistent calculation

          k = 0.0000 0.0000 0.0000 ( 68999 PWs)   bands (ev):

   -18.6199 -18.6197 -18.6197 -18.6197 -18.6195 -18.6195 -18.6195 -18.6193
   -13.9047 -13.9047 -13.9047 -13.9047 -13.9047 -13.8991 -13.8991 -13.8991
   -13.8935 -13.8935 -13.8935 -13.8877 -13.8877 -13.8877 -13.8876 -13.8876
   -13.8529 -13.8529 -13.8529 -13.8529 -13.8529 -13.8529 -13.8526 -13.8526
   -13.8526 -13.8526 -13.8526 -13.8526 -13.8526 -13.8526 -13.8526 -13.8526
   -13.8526 -13.8526 -13.8523 -13.8523 -13.8523 -13.8522 -13.8522 -13.8522
    -9.3425  -9.1457  -9.1457  -9.1457  -8.9040  -8.9040  -8.9040  -8.8422
    -8.8422  -8.8422  -8.8422  -8.8422  -8.8422  -8.8417  -8.8417  -8.8417
    -8.8366  -8.8366  -8.8366  -8.6154  -8.6154  -8.6132  -8.6132  -8.6132
    -5.6596  -5.4085  -5.4085  -5.4085  -5.3954  -5.3954  -5.3954  -5.3953
    -5.3953  -5.3953  -5.3953  -5.3953  -5.3953  -5.3915  -5.3915  -5.3915
    -5.3915  -5.3915  -5.3915  -5.3882  -5.3882  -5.3882  -5.3873  -5.3873
    -5.3873  -5.1312  -5.1312  -5.1312  -4.6253  -4.6253  -4.6253  -4.1124
    -0.6230  -0.6230  -0.6230  -0.5199  -0.5199  -0.5199  -0.5199  -0.5199
    -0.5199  -0.3839  -0.3839  -0.3839   0.6069   0.6069   0.6069   0.7388
     0.7388   0.7388   0.8906   0.8906   0.8906   1.2092   1.2092   1.2092
     1.2092   1.2092   1.2092   1.3066   1.3066   1.3066   1.3066   1.3066
     1.3066   1.3550   1.3550   1.3550   1.3550   1.3550   1.3550   1.4194
     1.4194   1.4194   1.4305   1.4305   1.4305   1.4380   1.4380   1.5488
     1.5488   1.5488   1.5745   1.5745   1.5745   1.5745   1.5745   1.5745
     1.6632   1.6632   1.6632   1.8951   1.8951   1.8951   2.0487   2.0487
     2.0487   2.0609   2.0609   2.0609   2.3308   2.3308   2.3308   2.7671
     4.2012   4.2012   4.2012   4.6286   4.6286   4.6286   4.6286   4.6286
     4.6286   4.9603   4.9603   4.9603   5.8992   6.7504   6.9738   6.9738
     7.3222   7.3222   7.3222   7.3824   7.3824   7.3825   7.5513   7.5513
     7.5513   7.6017   7.6018   7.6021   7.7692   7.7692   7.8686   7.9112
     7.9113   7.9113   7.9113

     occupation numbers 
     1.0000   1.0000   1.0000   1.0000   1.0000   1.0000   1.0000   1.0000
     1.0000   1.0000   1.0000   1.0000   1.0000   1.0000   1.0000   1.0000
     1.0000   1.0000   1.0000   1.0000   1.0000   1.0000   1.0000   1.0000
     1.0000   1.0000   1.0000   1.0000   1.0000   1.0000   1.0000   1.0000
     1.0000   1.0000   1.0000   1.0000   1.0000   1.0000   1.0000   1.0000
     1.0000   1.0000   1.0000   1.0000   1.0000   1.0000   1.0000   1.0000
     1.0000   1.0000   1.0000   1.0000   1.0000   1.0000   1.0000   1.0000
     1.0000   1.0000   1.0000   1.0000   1.0000   1.0000   1.0000   1.0000
     1.0000   1.0000   1.0000   1.0000   1.0000   1.0000   1.0000   1.0000
     1.0000   1.0000   1.0000   1.0000   1.0000   1.0000   1.0000   1.0000
     1.0000   1.0000   1.0000   1.0000   1.0000   1.0000   1.0000   1.0000
     1.0000   1.0000   1.0000   1.0000   1.0000   1.0000   1.0000   1.0000
     1.0000   1.0000   1.0000   1.0000   1.0000   1.0000   1.0000   1.0000
     1.0000   1.0000   1.0000   1.0000   1.0000   1.0000   1.0000   1.0000
     1.0000   1.0000   1.0000   1.0000   1.0000   1.0000   1.0000   1.0000
     1.0000   1.0000   1.0000   1.0000   1.0000   1.0000   1.0000   1.0000
     1.0000   1.0000   1.0000   1.0000   1.0000   1.0000   1.0000   1.0000
     1.0000   1.0000   1.0000   1.0000   1.0000   1.0000   1.0000   1.0000
     1.0000   1.0000   1.0000   1.0000   1.0000   1.0000   1.0000   1.0000
     1.0000   1.0000   1.0000   1.0000   1.0000   1.0000   1.0000   1.0000
     1.0000   1.0000   1.0000   1.0000   1.0000   1.0000   1.0014   1.0014
     1.0014   1.0018   1.0018   1.0018   1.0763   1.0763   1.0763   0.1104
     0.0000   0.0000   0.0000   0.0000   0.0000   0.0000   0.0000   0.0000
     0.0000   0.0000   0.0000   0.0000   0.0000   0.0000   0.0000   0.0000
     0.0000   0.0000   0.0000   0.0000   0.0000   0.0000   0.0000   0.0000
     0.0000   0.0000   0.0000   0.0000   0.0000   0.0000   0.0000   0.0000
     0.0000   0.0000   0.0000

          k = 0.0000 0.0000 0.3333 ( 69179 PWs)   bands (ev):

   -18.6199 -18.6198 -18.6197 -18.6197 -18.6195 -18.6195 -18.6194 -18.6193
   -13.9047 -13.9047 -13.9027 -13.9027 -13.9019 -13.9000 -13.9000 -13.8963
   -13.8963 -13.8926 -13.8926 -13.8906 -13.8897 -13.8897 -13.8877 -13.8877
   -13.8529 -13.8529 -13.8529 -13.8529 -13.8528 -13.8528 -13.8527 -13.8527
   -13.8526 -13.8526 -13.8526 -13.8526 -13.8526 -13.8526 -13.8525 -13.8525
   -13.8525 -13.8525 -13.8524 -13.8524 -13.8523 -13.8523 -13.8523 -13.8522
    -9.3070  -9.2151  -9.1102  -9.1102  -9.0126  -9.0126  -8.8880  -8.8544
    -8.8421  -8.8421  -8.8418  -8.8418  -8.8408  -8.8408  -8.8380  -8.8380
    -8.7646  -8.7365  -8.7365  -8.6580  -8.6454  -8.6454  -8.6148  -8.6138
    -5.5400  -5.4052  -5.4052  -5.4034  -5.3986  -5.3986  -5.3944  -5.3944
    -5.3943  -5.3943  -5.3943  -5.3943  -5.3933  -5.3928  -5.3925  -5.3925
    -5.3924  -5.3924  -5.3907  -5.3907  -5.3900  -5.3900  -5.3890  -5.3890
    -5.3887  -5.2778  -5.0202  -5.0202  -4.7704  -4.7704  -4.5189  -4.2667
    -0.5989  -0.5989  -0.5474  -0.5474  -0.4888  -0.4888  -0.4210  -0.4210
    -0.2306  -0.1329  -0.1329   0.0067   0.5594   0.6391   0.6695   0.6695
     0.7050   0.7137   0.7137   0.7993   0.7993   0.8132   0.8132   0.8998
     0.9757   0.9757   1.2020   1.2020   1.2215   1.2215   1.3185   1.3185
     1.3428   1.3428   1.3756   1.3756   1.4107   1.4107   1.4324   1.4361
     1.4505   1.5015   1.5015   1.5093   1.5093   1.5103   1.5103   1.5151
     1.5536   1.5536   1.5897   1.5897   1.6015   1.6015   1.6245   1.6311
     1.6311   1.6566   1.6753   1.6753   1.9182   1.9182   1.9295   1.9295
     1.9379   1.9379   2.0518   2.0579   2.0773   2.0773   2.3567   2.4807
     4.3205   4.3205   4.5327   4.5327   4.7210   4.7210   4.8876   4.8876
     5.2134   5.5308   5.5308   5.8175   6.1515   6.7132   6.7865   6.9435
     7.0551   7.0551   7.1126   7.1797   7.3950   7.4482   7.4482   7.4506
     7.4527   7.4679   7.5608   7.5608   7.5926   7.5926   7.6736   7.7352
     7.7352   7.7749   7.7749

     occupation numbers 
     1.0000   1.0000   1.0000   1.0000   1.0000   1.0000   1.0000   1.0000
     1.0000   1.0000   1.0000   1.0000   1.0000   1.0000   1.0000   1.0000
     1.0000   1.0000   1.0000   1.0000   1.0000   1.0000   1.0000   1.0000
     1.0000   1.0000   1.0000   1.0000   1.0000   1.0000   1.0000   1.0000
     1.0000   1.0000   1.0000   1.0000   1.0000   1.0000   1.0000   1.0000
     1.0000   1.0000   1.0000   1.0000   1.0000   1.0000   1.0000   1.0000
     1.0000   1.0000   1.0000   1.0000   1.0000   1.0000   1.0000   1.0000
     1.0000   1.0000   1.0000   1.0000   1.0000   1.0000   1.0000   1.0000
     1.0000   1.0000   1.0000   1.0000   1.0000   1.0000   1.0000   1.0000
     1.0000   1.0000   1.0000   1.0000   1.0000   1.0000   1.0000   1.0000
     1.0000   1.0000   1.0000   1.0000   1.0000   1.0000   1.0000   1.0000
     1.0000   1.0000   1.0000   1.0000   1.0000   1.0000   1.0000   1.0000
     1.0000   1.0000   1.0000   1.0000   1.0000   1.0000   1.0000   1.0000
     1.0000   1.0000   1.0000   1.0000   1.0000   1.0000   1.0000   1.0000
     1.0000   1.0000   1.0000   1.0000   1.0000   1.0000   1.0000   1.0000
     1.0000   1.0000   1.0000   1.0000   1.0000   1.0000   1.0000   1.0000
     1.0000   1.0000   1.0000   1.0000   1.0000   1.0000   1.0000   1.0000
     1.0000   1.0000   1.0000   1.0000   1.0000   1.0000   1.0000   1.0000
     1.0000   1.0000   1.0000   1.0000   1.0000   1.0000   1.0000   1.0000
     1.0000   1.0000   1.0000   1.0000   1.0000   1.0000   1.0000   1.0000
     1.0000   1.0000   1.0000   1.0000   1.0000   1.0000   1.0001   1.0001
     1.0001   1.0001   1.0015   1.0017   1.0026   1.0026   1.0826   0.9718
     0.0000   0.0000   0.0000   0.0000   0.0000   0.0000   0.0000   0.0000
     0.0000   0.0000   0.0000   0.0000   0.0000   0.0000   0.0000   0.0000
     0.0000   0.0000   0.0000   0.0000   0.0000   0.0000   0.0000   0.0000
     0.0000   0.0000   0.0000   0.0000   0.0000   0.0000   0.0000   0.0000
     0.0000   0.0000   0.0000

          k = 0.0000 0.3333 0.3333 ( 69202 PWs)   bands (ev):

   -18.6198 -18.6197 -18.6197 -18.6196 -18.6196 -18.6195 -18.6195 -18.6194
   -13.9033 -13.9028 -13.9028 -13.9005 -13.9005 -13.9005 -13.8972 -13.8972
   -13.8954 -13.8954 -13.8920 -13.8920 -13.8920 -13.8896 -13.8896 -13.8891
   -13.8529 -13.8529 -13.8528 -13.8528 -13.8528 -13.8527 -13.8527 -13.8527
   -13.8526 -13.8526 -13.8526 -13.8526 -13.8526 -13.8526 -13.8526 -13.8525
   -13.8525 -13.8525 -13.8525 -13.8524 -13.8524 -13.8524 -13.8523 -13.8523
    -9.2719  -9.1807  -9.1807  -9.0896  -9.0773  -8.9880  -8.9880  -8.9241
    -8.8416  -8.8411  -8.8411  -8.8390  -8.7879  -8.7831  -8.7669  -8.7669
    -8.7475  -8.7475  -8.7140  -8.6746  -8.6715  -8.6451  -8.6451  -8.6374
    -5.4306  -5.4042  -5.3984  -5.3984  -5.3981  -5.3980  -5.3980  -5.3957
    -5.3952  -5.3950  -5.3950  -5.3938  -5.3938  -5.3935  -5.3929  -5.3918
    -5.3916  -5.3916  -5.3913  -5.3913  -5.3906  -5.3899  -5.3896  -5.3892
    -5.3892  -5.1647  -5.1647  -4.9142  -4.9121  -4.6645  -4.6645  -4.4163
    -0.5732  -0.5183  -0.5183  -0.4553  -0.2843  -0.1686  -0.1686  -0.1633
    -0.1320  -0.0404  -0.0388  -0.0388   0.5630   0.5766   0.5766   0.6334
     0.6919   0.6919   0.7232   0.7291   0.7291   0.7503   0.7715   0.7872
     0.8183   0.9791   0.9791   1.0452   1.0478   1.1469   1.1840   1.1840
     1.2200   1.2200   1.3295   1.3469   1.3630   1.3977   1.3977   1.4092
     1.4838   1.5228   1.5273   1.5273   1.5299   1.5495   1.5495   1.5639
     1.5821   1.5857   1.5934   1.5934   1.6233   1.6233   1.6699   1.6896
     1.6896   1.7085   1.7362   1.7539   1.7539   1.7888   1.8635   1.8896
     1.8957   1.9437   1.9437   1.9459   1.9782   2.0855   2.0855   2.1769
     4.4311   4.6306   4.6306   4.8081   5.2444   5.3321   5.4481   5.4481
     5.5704   5.6321   5.7468   5.7468   6.3627   6.7712   6.7712   6.8925
     6.8925   6.9100   6.9610   7.0782   7.1648   7.1648   7.1960   7.2781
     7.2925   7.3400   7.3485   7.4159   7.4390   7.4390   7.5698   7.5844
     7.5844   7.6229   7.6952

     occupation numbers 
     1.0000   1.0000   1.0000   1.0000   1.0000   1.0000   1.0000   1.0000
     1.0000   1.0000   1.0000   1.0000   1.0000   1.0000   1.0000   1.0000
     1.0000   1.0000   1.0000   1.0000   1.0000   1.0000   1.0000   1.0000
     1.0000   1.0000   1.0000   1.0000   1.0000   1.0000   1.0000   1.0000
     1.0000   1.0000   1.0000   1.0000   1.0000   1.0000   1.0000   1.0000
     1.0000   1.0000   1.0000   1.0000   1.0000   1.0000   1.0000   1.0000
     1.0000   1.0000   1.0000   1.0000   1.0000   1.0000   1.0000   1.0000
     1.0000   1.0000   1.0000   1.0000   1.0000   1.0000   1.0000   1.0000
     1.0000   1.0000   1.0000   1.0000   1.0000   1.0000   1.0000   1.0000
     1.0000   1.0000   1.0000   1.0000   1.0000   1.0000   1.0000   1.0000
     1.0000   1.0000   1.0000   1.0000   1.0000   1.0000   1.0000   1.0000
     1.0000   1.0000   1.0000   1.0000   1.0000   1.0000   1.0000   1.0000
     1.0000   1.0000   1.0000   1.0000   1.0000   1.0000   1.0000   1.0000
     1.0000   1.0000   1.0000   1.0000   1.0000   1.0000   1.0000   1.0000
     1.0000   1.0000   1.0000   1.0000   1.0000   1.0000   1.0000   1.0000
     1.0000   1.0000   1.0000   1.0000   1.0000   1.0000   1.0000   1.0000
     1.0000   1.0000   1.0000   1.0000   1.0000   1.0000   1.0000   1.0000
     1.0000   1.0000   1.0000   1.0000   1.0000   1.0000   1.0000   1.0000
     1.0000   1.0000   1.0000   1.0000   1.0000   1.0000   1.0000   1.0000
     1.0000   1.0000   1.0000   1.0000   1.0000   1.0000   1.0000   1.0000
     1.0000   1.0000   1.0000   1.0000   1.0000   1.0000   1.0000   1.0000
     1.0000   1.0001   1.0001   1.0001   1.0003   1.0031   1.0031   1.0157
     0.0000   0.0000   0.0000   0.0000   0.0000   0.0000   0.0000   0.0000
     0.0000   0.0000   0.0000   0.0000   0.0000   0.0000   0.0000   0.0000
     0.0000   0.0000   0.0000   0.0000   0.0000   0.0000   0.0000   0.0000
     0.0000   0.0000   0.0000   0.0000   0.0000   0.0000   0.0000   0.0000
     0.0000   0.0000   0.0000

          k = 0.3333 0.3333 0.3333 ( 69090 PWs)   bands (ev):

   -18.6198 -18.6197 -18.6197 -18.6197 -18.6195 -18.6195 -18.6195 -18.6194
   -13.9005 -13.9005 -13.9005 -13.9004 -13.9004 -13.8977 -13.8977 -13.8977
   -13.8949 -13.8949 -13.8949 -13.8920 -13.8920 -13.8920 -13.8919 -13.8919
   -13.8528 -13.8528 -13.8528 -13.8527 -13.8527 -13.8527 -13.8526 -13.8526
   -13.8526 -13.8526 -13.8526 -13.8526 -13.8526 -13.8526 -13.8526 -13.8526
   -13.8526 -13.8526 -13.8525 -13.8525 -13.8525 -13.8524 -13.8524 -13.8524
    -9.2376  -9.1481  -9.1481  -9.1481  -9.0618  -9.0618  -9.0618  -8.9892
    -8.7867  -8.7867  -8.7867  -8.7843  -8.7843  -8.7682  -8.7682  -8.7682
    -8.7319  -8.7319  -8.7319  -8.6738  -8.6738  -8.6723  -8.6723  -8.6723
    -5.4019  -5.4019  -5.3975  -5.3973  -5.3973  -5.3973  -5.3973  -5.3973
    -5.3973  -5.3955  -5.3955  -5.3955  -5.3952  -5.3952  -5.3944  -5.3944
    -5.3944  -5.3898  -5.3898  -5.3898  -5.3880  -5.3879  -5.3879  -5.3879
    -5.3062  -5.0557  -5.0557  -5.0557  -4.8083  -4.8083  -4.8083  -4.5625
    -0.2568  -0.2568  -0.1967  -0.1967  -0.1967  -0.0836  -0.0836  -0.0836
    -0.0804  -0.0804  -0.0804  -0.0384   0.5890   0.5890   0.5890   0.5927
     0.5927   0.5927   0.6477   0.6477   0.6477   0.6621   0.6621   0.6867
     0.9540   0.9540   0.9949   0.9949   0.9949   1.1264   1.1264   1.1264
     1.1688   1.1688   1.1688   1.2652   1.2652   1.2652   1.3136   1.3136
     1.4223   1.4393   1.4393   1.4393   1.4834   1.4834   1.4834   1.6645
     1.6767   1.6767   1.6767   1.7057   1.7057   1.7128   1.7128   1.7128
     1.7299   1.7299   1.7299   1.7350   1.7654   1.7654   1.7654   1.8205
     1.8205   1.8205   1.8780   1.8780   1.8967   1.8967   1.8967   1.9192
     5.3240   5.3240   5.4394   5.4874   5.4874   5.4874   5.5527   5.5527
     5.5527   5.6708   5.6708   5.6708   6.5111   6.8097   6.8097   6.8097
     6.8435   6.8435   6.8435   7.0060   7.0061   7.0061   7.1142   7.1403
     7.1403   7.1794   7.1795   7.1795   7.1837   7.2791   7.2791   7.2791
     7.3991   7.3991   7.7689

     occupation numbers 
     1.0000   1.0000   1.0000   1.0000   1.0000   1.0000   1.0000   1.0000
     1.0000   1.0000   1.0000   1.0000   1.0000   1.0000   1.0000   1.0000
     1.0000   1.0000   1.0000   1.0000   1.0000   1.0000   1.0000   1.0000
     1.0000   1.0000   1.0000   1.0000   1.0000   1.0000   1.0000   1.0000
     1.0000   1.0000   1.0000   1.0000   1.0000   1.0000   1.0000   1.0000
     1.0000   1.0000   1.0000   1.0000   1.0000   1.0000   1.0000   1.0000
     1.0000   1.0000   1.0000   1.0000   1.0000   1.0000   1.0000   1.0000
     1.0000   1.0000   1.0000   1.0000   1.0000   1.0000   1.0000   1.0000
     1.0000   1.0000   1.0000   1.0000   1.0000   1.0000   1.0000   1.0000
     1.0000   1.0000   1.0000   1.0000   1.0000   1.0000   1.0000   1.0000
     1.0000   1.0000   1.0000   1.0000   1.0000   1.0000   1.0000   1.0000
     1.0000   1.0000   1.0000   1.0000   1.0000   1.0000   1.0000   1.0000
     1.0000   1.0000   1.0000   1.0000   1.0000   1.0000   1.0000   1.0000
     1.0000   1.0000   1.0000   1.0000   1.0000   1.0000   1.0000   1.0000
     1.0000   1.0000   1.0000   1.0000   1.0000   1.0000   1.0000   1.0000
     1.0000   1.0000   1.0000   1.0000   1.0000   1.0000   1.0000   1.0000
     1.0000   1.0000   1.0000   1.0000   1.0000   1.0000   1.0000   1.0000
     1.0000   1.0000   1.0000   1.0000   1.0000   1.0000   1.0000   1.0000
     1.0000   1.0000   1.0000   1.0000   1.0000   1.0000   1.0000   1.0000
     1.0000   1.0000   1.0000   1.0000   1.0000   1.0000   1.0000   1.0000
     1.0000   1.0000   1.0000   1.0000   1.0000   1.0000   1.0000   1.0000
     1.0000   1.0000   1.0000   1.0000   1.0000   1.0000   1.0000   1.0001
     0.0000   0.0000   0.0000   0.0000   0.0000   0.0000   0.0000   0.0000
     0.0000   0.0000   0.0000   0.0000   0.0000   0.0000   0.0000   0.0000
     0.0000   0.0000   0.0000   0.0000   0.0000   0.0000   0.0000   0.0000
     0.0000   0.0000   0.0000   0.0000   0.0000   0.0000   0.0000   0.0000
     0.0000   0.0000   0.0000

     the Fermi energy is     2.6510 ev

!    total energy              =  -16565.85935349 Ry
     estimated scf accuracy    <          1.3E-09 Ry
     smearing contrib. (-TS)   =       0.00294048 Ry
     internal energy E=F+TS    =  -16565.86229397 Ry

     The total energy is F=E-TS. E is the sum of the following terms:
     one-electron contribution =    -767.67087856 Ry
     hartree contribution      =     549.51033598 Ry
     xc contribution           =   -1598.31589083 Ry
     ewald contribution        =   -1229.22289246 Ry
     one-center paw contrib.   =  -13520.16296810 Ry
      -> PAW hartree energy AE =    1016.93250302 Ry
      -> PAW hartree energy PS =   -1016.37135468 Ry
      -> PAW xc energy AE      =  -14841.73390501 Ry
      -> PAW xc energy PS      =    1321.00978857 Ry
      -> total E_H with PAW    =     550.07148432 Ry
      -> total E_XC with PAW   =  -15119.04000727 Ry

     convergence has been achieved in  13 iterations

     Forces acting on atoms (cartesian axes, Ry/au):

     atom    1 type  1   force =     0.00000025    0.00000025    0.00000025
     atom    2 type  1   force =     0.00000025    0.00000025   -0.00000025
     atom    3 type  1   force =     0.00000025   -0.00000025    0.00000025
     atom    4 type  1   force =     0.00000025   -0.00000025   -0.00000025
     atom    5 type  1   force =    -0.00000025    0.00000025    0.00000025
     atom    6 type  1   force =    -0.00000025    0.00000025   -0.00000025
     atom    7 type  1   force =    -0.00000025   -0.00000025    0.00000025
     atom    8 type  1   force =    -0.00000025   -0.00000025   -0.00000025
     atom    9 type  3   force =     0.00000000    0.00000000    0.00000000
     atom   10 type  3   force =     0.00000000    0.00000000    0.00000000
     atom   11 type  3   force =     0.00000000    0.00000000    0.00000000
     atom   12 type  3   force =     0.00000000    0.00000000    0.00000000
     atom   13 type  3   force =     0.00000000    0.00000000    0.00000000
     atom   14 type  3   force =     0.00000000    0.00000000    0.00000000
     atom   15 type  3   force =     0.00000000    0.00000000    0.00000000
     atom   16 type  3   force =     0.00000000    0.00000000    0.00000000
     atom   17 type  2   force =     0.00000000   -0.00000000   -0.00000501
     atom   18 type  2   force =     0.00000000   -0.00000000    0.00000501
     atom   19 type  2   force =     0.00000000    0.00000000   -0.00000454
     atom   20 type  2   force =     0.00000000    0.00000000    0.00000454
     atom   21 type  2   force =     0.00000000    0.00000000   -0.00000454
     atom   22 type  2   force =     0.00000000    0.00000000    0.00000454
     atom   23 type  2   force =     0.00000000    0.00000000   -0.00000454
     atom   24 type  2   force =    -0.00000000   -0.00000000    0.00000454
     atom   25 type  2   force =     0.00000000   -0.00000501    0.00000000
     atom   26 type  2   force =     0.00000000   -0.00000454   -0.00000000
     atom   27 type  2   force =     0.00000000    0.00000501    0.00000000
     atom   28 type  2   force =     0.00000000    0.00000454   -0.00000000
     atom   29 type  2   force =     0.00000000   -0.00000454   -0.00000000
     atom   30 type  2   force =     0.00000000   -0.00000454    0.00000000
     atom   31 type  2   force =     0.00000000    0.00000454   -0.00000000
     atom   32 type  2   force =     0.00000000    0.00000454    0.00000000
     atom   33 type  2   force =    -0.00000501    0.00000000   -0.00000000
     atom   34 type  2   force =    -0.00000454    0.00000000    0.00000000
     atom   35 type  2   force =    -0.00000454   -0.00000000    0.00000000
     atom   36 type  2   force =    -0.00000454   -0.00000000    0.00000000
     atom   37 type  2   force =     0.00000501    0.00000000   -0.00000000
     atom   38 type  2   force =     0.00000454    0.00000000   -0.00000000
     atom   39 type  2   force =     0.00000454    0.00000000    0.00000000
     atom   40 type  2   force =     0.00000454    0.00000000    0.00000000
     The non-local contrib.  to forces
     atom    1 type  1   force =     0.00000020    0.00000020    0.00000020
     atom    2 type  1   force =     0.00000020    0.00000020   -0.00000020
     atom    3 type  1   force =     0.00000020   -0.00000020    0.00000020
     atom    4 type  1   force =     0.00000020   -0.00000020   -0.00000020
     atom    5 type  1   force =    -0.00000020    0.00000020    0.00000020
     atom    6 type  1   force =    -0.00000020    0.00000020   -0.00000020
     atom    7 type  1   force =    -0.00000020   -0.00000020    0.00000020
     atom    8 type  1   force =    -0.00000020   -0.00000020   -0.00000020
     atom    9 type  3   force =     0.00000000    0.00000000    0.00000000
     atom   10 type  3   force =     0.00000000    0.00000000    0.00000000
     atom   11 type  3   force =     0.00000000    0.00000000    0.00000000
     atom   12 type  3   force =     0.00000000    0.00000000    0.00000000
     atom   13 type  3   force =     0.00000000    0.00000000    0.00000000
     atom   14 type  3   force =     0.00000000    0.00000000    0.00000000
     atom   15 type  3   force =     0.00000000    0.00000000    0.00000000
     atom   16 type  3   force =     0.00000000    0.00000000    0.00000000
     atom   17 type  2   force =     0.00000000    0.00000000    0.00000056
     atom   18 type  2   force =     0.00000000    0.00000000   -0.00000056
     atom   19 type  2   force =     0.00000000    0.00000000    0.00000104
     atom   20 type  2   force =     0.00000000    0.00000000   -0.00000104
     atom   21 type  2   force =     0.00000000    0.00000000    0.00000104
     atom   22 type  2   force =     0.00000000    0.00000000   -0.00000104
     atom   23 type  2   force =     0.00000000    0.00000000    0.00000105
     atom   24 type  2   force =     0.00000000    0.00000000   -0.00000105
     atom   25 type  2   force =     0.00000000    0.00000056   -0.00000000
     atom   26 type  2   force =    -0.00000000    0.00000104   -0.00000000
     atom   27 type  2   force =     0.00000000   -0.00000056   -0.00000000
     atom   28 type  2   force =     0.00000000   -0.00000104    0.00000000
     atom   29 type  2   force =    -0.00000000    0.00000104   -0.00000000
     atom   30 type  2   force =     0.00000000    0.00000105    0.00000000
     atom   31 type  2   force =     0.00000000   -0.00000104    0.00000000
     atom   32 type  2   force =     0.00000000   -0.00000105   -0.00000000
     atom   33 type  2   force =     0.00000056    0.00000000    0.00000000
     atom   34 type  2   force =     0.00000104    0.00000000    0.00000000
     atom   35 type  2   force =     0.00000104    0.00000000    0.00000000
     atom   36 type  2   force =     0.00000105    0.00000000    0.00000000
     atom   37 type  2   force =    -0.00000056    0.00000000    0.00000000
     atom   38 type  2   force =    -0.00000104    0.00000000    0.00000000
     atom   39 type  2   force =    -0.00000104    0.00000000    0.00000000
     atom   40 type  2   force =    -0.00000105    0.00000000    0.00000000
     The ionic contribution  to forces
     atom    1 type  1   force =    -0.00004935   -0.00004935   -0.00004935
     atom    2 type  1   force =    -0.00004935   -0.00004935    0.00004935
     atom    3 type  1   force =    -0.00004935    0.00004935   -0.00004935
     atom    4 type  1   force =    -0.00004935    0.00004935    0.00004935
     atom    5 type  1   force =     0.00004935   -0.00004935   -0.00004935
     atom    6 type  1   force =     0.00004935   -0.00004935    0.00004935
     atom    7 type  1   force =     0.00004935    0.00004935   -0.00004935
     atom    8 type  1   force =     0.00004935    0.00004935    0.00004935
     atom    9 type  3   force =    -0.00000000   -0.00000000   -0.00000000
     atom   10 type  3   force =     0.00000000    0.00000000    0.00000000
     atom   11 type  3   force =     0.00000000    0.00000000    0.00000000
     atom   12 type  3   force =    -0.00000000    0.00000000    0.00000000
     atom   13 type  3   force =     0.00000000    0.00000000    0.00000000
     atom   14 type  3   force =     0.00000000   -0.00000000    0.00000000
     atom   15 type  3   force =     0.00000000    0.00000000   -0.00000000
     atom   16 type  3   force =     0.00000000    0.00000000    0.00000000
     atom   17 type  2   force =    -0.00000000   -0.00000000   -0.00020855
     atom   18 type  2   force =    -0.00000000   -0.00000000    0.00020855
     atom   19 type  2   force =    -0.00000000    0.00000000   -0.00021075
     atom   20 type  2   force =    -0.00000000    0.00000000    0.00021075
     atom   21 type  2   force =     0.00000000   -0.00000000   -0.00021075
     atom   22 type  2   force =     0.00000000   -0.00000000    0.00021075
     atom   23 type  2   force =     0.00000000    0.00000000   -0.00021115
     atom   24 type  2   force =    -0.00000000   -0.00000000    0.00021115
     atom   25 type  2   force =    -0.00000000   -0.00020855   -0.00000000
     atom   26 type  2   force =    -0.00000000   -0.00021075    0.00000000
     atom   27 type  2   force =    -0.00000000    0.00020855   -0.00000000
     atom   28 type  2   force =    -0.00000000    0.00021075    0.00000000
     atom   29 type  2   force =     0.00000000   -0.00021075   -0.00000000
     atom   30 type  2   force =     0.00000000   -0.00021115    0.00000000
     atom   31 type  2   force =     0.00000000    0.00021075   -0.00000000
     atom   32 type  2   force =    -0.00000000    0.00021115   -0.00000000
     atom   33 type  2   force =    -0.00020855   -0.00000000   -0.00000000
     atom   34 type  2   force =    -0.00021075   -0.00000000    0.00000000
     atom   35 type  2   force =    -0.00021075    0.00000000   -0.00000000
     atom   36 type  2   force =    -0.00021115    0.00000000    0.00000000
     atom   37 type  2   force =     0.00020855   -0.00000000   -0.00000000
     atom   38 type  2   force =     0.00021075   -0.00000000    0.00000000
     atom   39 type  2   force =     0.00021075    0.00000000   -0.00000000
     atom   40 type  2   force =     0.00021115   -0.00000000   -0.00000000
     The local contribution  to forces
     atom    1 type  1   force =     0.00004934    0.00004934    0.00004934
     atom    2 type  1   force =     0.00004934    0.00004934   -0.00004934
     atom    3 type  1   force =     0.00004934   -0.00004934    0.00004934
     atom    4 type  1   force =     0.00004934   -0.00004934   -0.00004934
     atom    5 type  1   force =    -0.00004934    0.00004934    0.00004934
     atom    6 type  1   force =    -0.00004934    0.00004934   -0.00004934
     atom    7 type  1   force =    -0.00004934   -0.00004934    0.00004934
     atom    8 type  1   force =    -0.00004934   -0.00004934   -0.00004934
     atom    9 type  3   force =    -0.00000000    0.00000000    0.00000000
     atom   10 type  3   force =    -0.00000000    0.00000000    0.00000000
     atom   11 type  3   force =    -0.00000000    0.00000000    0.00000000
     atom   12 type  3   force =    -0.00000000    0.00000000    0.00000000
     atom   13 type  3   force =     0.00000000    0.00000000    0.00000000
     atom   14 type  3   force =     0.00000000    0.00000000    0.00000000
     atom   15 type  3   force =     0.00000000    0.00000000    0.00000000
     atom   16 type  3   force =     0.00000000    0.00000000    0.00000000
     atom   17 type  2   force =    -0.00000000    0.00000000    0.00019998
     atom   18 type  2   force =    -0.00000000   -0.00000000   -0.00019998
     atom   19 type  2   force =    -0.00000000    0.00000000    0.00020530
     atom   20 type  2   force =    -0.00000000    0.00000000   -0.00020530
     atom   21 type  2   force =     0.00000000   -0.00000000    0.00020530
     atom   22 type  2   force =     0.00000000   -0.00000000   -0.00020530
     atom   23 type  2   force =     0.00000000    0.00000000    0.00020577
     atom   24 type  2   force =    -0.00000000   -0.00000000   -0.00020577
     atom   25 type  2   force =    -0.00000000    0.00019998   -0.00000000
     atom   26 type  2   force =    -0.00000000    0.00020530    0.00000000
     atom   27 type  2   force =    -0.00000000   -0.00019998   -0.00000000
     atom   28 type  2   force =    -0.00000000   -0.00020530    0.00000000
     atom   29 type  2   force =     0.00000000    0.00020530   -0.00000000
     atom   30 type  2   force =     0.00000000    0.00020577    0.00000000
     atom   31 type  2   force =     0.00000000   -0.00020530   -0.00000000
     atom   32 type  2   force =     0.00000000   -0.00020577    0.00000000
     atom   33 type  2   force =     0.00019998    0.00000000   -0.00000000
     atom   34 type  2   force =     0.00020530   -0.00000000    0.00000000
     atom   35 type  2   force =     0.00020530    0.00000000    0.00000000
     atom   36 type  2   force =     0.00020577    0.00000000    0.00000000
     atom   37 type  2   force =    -0.00019998    0.00000000    0.00000000
     atom   38 type  2   force =    -0.00020530   -0.00000000    0.00000000
     atom   39 type  2   force =    -0.00020530    0.00000000    0.00000000
     atom   40 type  2   force =    -0.00020577    0.00000000   -0.00000000
     The core correction contribution to forces
     atom    1 type  1   force =     0.00000000    0.00000000    0.00000000
     atom    2 type  1   force =     0.00000000    0.00000000   -0.00000000
     atom    3 type  1   force =     0.00000000   -0.00000000    0.00000000
     atom    4 type  1   force =     0.00000000   -0.00000000   -0.00000000
     atom    5 type  1   force =    -0.00000000    0.00000000    0.00000000
     atom    6 type  1   force =    -0.00000000    0.00000000   -0.00000000
     atom    7 type  1   force =    -0.00000000   -0.00000000    0.00000000
     atom    8 type  1   force =    -0.00000000   -0.00000000   -0.00000000
     atom    9 type  3   force =     0.00000000    0.00000000    0.00000000
     atom   10 type  3   force =    -0.00000000   -0.00000000    0.00000000
     atom   11 type  3   force =    -0.00000000    0.00000000   -0.00000000
     atom   12 type  3   force =     0.00000000   -0.00000000   -0.00000000
     atom   13 type  3   force =     0.00000000   -0.00000000   -0.00000000
     atom   14 type  3   force =    -0.00000000    0.00000000   -0.00000000
     atom   15 type  3   force =    -0.00000000   -0.00000000    0.00000000
     atom   16 type  3   force =     0.00000000    0.00000000    0.00000000
     atom   17 type  2   force =     0.00000000    0.00000000    0.00000050
     atom   18 type  2   force =     0.00000000    0.00000000   -0.00000050
     atom   19 type  2   force =     0.00000000   -0.00000000    0.00000063
     atom   20 type  2   force =     0.00000000   -0.00000000   -0.00000063
     atom   21 type  2   force =    -0.00000000    0.00000000    0.00000063
     atom   22 type  2   force =    -0.00000000    0.00000000   -0.00000063
     atom   23 type  2   force =    -0.00000000   -0.00000000    0.00000057
     atom   24 type  2   force =     0.00000000    0.00000000   -0.00000057
     atom   25 type  2   force =     0.00000000    0.00000050    0.00000000
     atom   26 type  2   force =     0.00000000    0.00000063   -0.00000000
     atom   27 type  2   force =     0.00000000   -0.00000050    0.00000000
     atom   28 type  2   force =     0.00000000   -0.00000063   -0.00000000
     atom   29 type  2   force =    -0.00000000    0.00000063    0.00000000
     atom   30 type  2   force =    -0.00000000    0.00000057   -0.00000000
     atom   31 type  2   force =    -0.00000000   -0.00000063    0.00000000
     atom   32 type  2   force =     0.00000000   -0.00000057    0.00000000
     atom   33 type  2   force =     0.00000050    0.00000000    0.00000000
     atom   34 type  2   force =     0.00000063    0.00000000   -0.00000000
     atom   35 type  2   force =     0.00000063   -0.00000000    0.00000000
     atom   36 type  2   force =     0.00000057   -0.00000000   -0.00000000
     atom   37 type  2   force =    -0.00000050    0.00000000    0.00000000
     atom   38 type  2   force =    -0.00000063    0.00000000   -0.00000000
     atom   39 type  2   force =    -0.00000063   -0.00000000    0.00000000
     atom   40 type  2   force =    -0.00000057    0.00000000    0.00000000
     The Hubbard contrib.    to forces
     atom    1 type  1   force =     0.00000000    0.00000000    0.00000000
     atom    2 type  1   force =     0.00000000    0.00000000    0.00000000
     atom    3 type  1   force =     0.00000000    0.00000000    0.00000000
     atom    4 type  1   force =     0.00000000    0.00000000    0.00000000
     atom    5 type  1   force =     0.00000000    0.00000000    0.00000000
     atom    6 type  1   force =     0.00000000    0.00000000    0.00000000
     atom    7 type  1   force =     0.00000000    0.00000000    0.00000000
     atom    8 type  1   force =     0.00000000    0.00000000    0.00000000
     atom    9 type  3   force =     0.00000000    0.00000000    0.00000000
     atom   10 type  3   force =     0.00000000    0.00000000    0.00000000
     atom   11 type  3   force =     0.00000000    0.00000000    0.00000000
     atom   12 type  3   force =     0.00000000    0.00000000    0.00000000
     atom   13 type  3   force =     0.00000000    0.00000000    0.00000000
     atom   14 type  3   force =     0.00000000    0.00000000    0.00000000
     atom   15 type  3   force =     0.00000000    0.00000000    0.00000000
     atom   16 type  3   force =     0.00000000    0.00000000    0.00000000
     atom   17 type  2   force =     0.00000000    0.00000000    0.00000000
     atom   18 type  2   force =     0.00000000    0.00000000    0.00000000
     atom   19 type  2   force =     0.00000000    0.00000000    0.00000000
     atom   20 type  2   force =     0.00000000    0.00000000    0.00000000
     atom   21 type  2   force =     0.00000000    0.00000000    0.00000000
     atom   22 type  2   force =     0.00000000    0.00000000    0.00000000
     atom   23 type  2   force =     0.00000000    0.00000000    0.00000000
     atom   24 type  2   force =     0.00000000    0.00000000    0.00000000
     atom   25 type  2   force =     0.00000000    0.00000000    0.00000000
     atom   26 type  2   force =     0.00000000    0.00000000    0.00000000
     atom   27 type  2   force =     0.00000000    0.00000000    0.00000000
     atom   28 type  2   force =     0.00000000    0.00000000    0.00000000
     atom   29 type  2   force =     0.00000000    0.00000000    0.00000000
     atom   30 type  2   force =     0.00000000    0.00000000    0.00000000
     atom   31 type  2   force =     0.00000000    0.00000000    0.00000000
     atom   32 type  2   force =     0.00000000    0.00000000    0.00000000
     atom   33 type  2   force =     0.00000000    0.00000000    0.00000000
     atom   34 type  2   force =     0.00000000    0.00000000    0.00000000
     atom   35 type  2   force =     0.00000000    0.00000000    0.00000000
     atom   36 type  2   force =     0.00000000    0.00000000    0.00000000
     atom   37 type  2   force =     0.00000000    0.00000000    0.00000000
     atom   38 type  2   force =     0.00000000    0.00000000    0.00000000
     atom   39 type  2   force =     0.00000000    0.00000000    0.00000000
     atom   40 type  2   force =     0.00000000    0.00000000    0.00000000
     The SCF correction term to forces
     atom    1 type  1   force =     0.00000005    0.00000005    0.00000005
     atom    2 type  1   force =     0.00000005    0.00000005   -0.00000005
     atom    3 type  1   force =     0.00000005   -0.00000005    0.00000005
     atom    4 type  1   force =     0.00000005   -0.00000005   -0.00000005
     atom    5 type  1   force =    -0.00000005    0.00000005    0.00000005
     atom    6 type  1   force =    -0.00000005    0.00000005   -0.00000005
     atom    7 type  1   force =    -0.00000005   -0.00000005    0.00000005
     atom    8 type  1   force =    -0.00000005   -0.00000005   -0.00000005
     atom    9 type  3   force =    -0.00000000   -0.00000000   -0.00000000
     atom   10 type  3   force =    -0.00000000    0.00000000   -0.00000000
     atom   11 type  3   force =    -0.00000000   -0.00000000    0.00000000
     atom   12 type  3   force =    -0.00000000    0.00000000    0.00000000
     atom   13 type  3   force =     0.00000000    0.00000000    0.00000000
     atom   14 type  3   force =    -0.00000000    0.00000000   -0.00000000
     atom   15 type  3   force =    -0.00000000    0.00000000   -0.00000000
     atom   16 type  3   force =    -0.00000000    0.00000000   -0.00000000
     atom   17 type  2   force =    -0.00000000    0.00000000    0.00000251
     atom   18 type  2   force =    -0.00000000    0.00000000   -0.00000251
     atom   19 type  2   force =    -0.00000000    0.00000000   -0.00000076
     atom   20 type  2   force =    -0.00000000    0.00000000    0.00000076
     atom   21 type  2   force =    -0.00000000   -0.00000000   -0.00000076
     atom   22 type  2   force =    -0.00000000   -0.00000000    0.00000076
     atom   23 type  2   force =    -0.00000000    0.00000000   -0.00000077
     atom   24 type  2   force =    -0.00000000    0.00000000    0.00000077
     atom   25 type  2   force =    -0.00000000    0.00000251   -0.00000000
     atom   26 type  2   force =    -0.00000000   -0.00000076   -0.00000000
     atom   27 type  2   force =    -0.00000000   -0.00000251   -0.00000000
     atom   28 type  2   force =    -0.00000000    0.00000076   -0.00000000
     atom   29 type  2   force =    -0.00000000   -0.00000076   -0.00000000
     atom   30 type  2   force =    -0.00000000   -0.00000077   -0.00000000
     atom   31 type  2   force =    -0.00000000    0.00000076    0.00000000
     atom   32 type  2   force =    -0.00000000    0.00000077   -0.00000000
     atom   33 type  2   force =     0.00000251   -0.00000000   -0.00000000
     atom   34 type  2   force =    -0.00000076   -0.00000000    0.00000000
     atom   35 type  2   force =    -0.00000076    0.00000000   -0.00000000
     atom   36 type  2   force =    -0.00000077   -0.00000000   -0.00000000
     atom   37 type  2   force =    -0.00000251   -0.00000000   -0.00000000
     atom   38 type  2   force =     0.00000076   -0.00000000    0.00000000
     atom   39 type  2   force =     0.00000076    0.00000000    0.00000000
     atom   40 type  2   force =     0.00000077    0.00000000   -0.00000000

     Total force =     0.000023     Total SCF correction =     0.000007
     SCF correction compared to forces is large: reduce conv_thr to get better values


     Computing stress (Cartesian axis) and pressure

          total   stress  (Ry/bohr**3)                   (kbar)     P=        0.77
   0.00000526   0.00000000   0.00000000            0.77        0.00        0.00
   0.00000000   0.00000526   0.00000000            0.00        0.77        0.00
   0.00000000   0.00000000   0.00000526            0.00        0.00        0.77

     kinetic stress (kbar)   3450.20      0.00      0.00
                                0.00   3450.20      0.00
                                0.00      0.00   3450.20

     local   stress (kbar)   -371.26     -0.00     -0.00
                               -0.00   -371.26     -0.00
                               -0.00     -0.00   -371.26

     nonloc. stress (kbar)    896.43      0.00      0.00
                                0.00    896.43      0.00
                                0.00      0.00    896.43

     hartree stress (kbar)   1920.49     -0.00      0.00
                               -0.00   1920.49      0.00
                                0.00      0.00   1920.49

     exc-cor stress (kbar)  12007.46      0.00      0.00
                                0.00  12007.46      0.00
                                0.00      0.00  12007.46

     corecor stress (kbar) -13606.52      0.00      0.00
                               -0.00 -13606.52      0.00
                                0.00      0.00 -13606.52

     ewald   stress (kbar)  -4296.03     -0.00      0.00
                               -0.00  -4296.03     -0.00
                                0.00     -0.00  -4296.03

     hubbard stress (kbar)      0.00      0.00      0.00
                                0.00      0.00      0.00
                                0.00      0.00      0.00

     DFT-D   stress (kbar)      0.00      0.00      0.00
                                0.00      0.00      0.00
                                0.00      0.00      0.00

     XDM     stress (kbar)      0.00      0.00      0.00
                                0.00      0.00      0.00
                                0.00      0.00      0.00

     dft-nl  stress (kbar)      0.00      0.00      0.00
                                0.00      0.00      0.00
                                0.00      0.00      0.00

     TS-vdW  stress (kbar)      0.00      0.00      0.00
                                0.00      0.00      0.00
                                0.00      0.00      0.00



     Writing output data file ../../out/aiida.save/

     init_run     :    350.44s CPU    353.81s WALL (       1 calls)
     electrons    :  15072.60s CPU  15154.51s WALL (       1 calls)
     forces       :    222.88s CPU    225.76s WALL (       1 calls)
     stress       :    322.89s CPU    330.45s WALL (       1 calls)

     Called by init_run:
     wfcinit      :    329.97s CPU    330.88s WALL (       1 calls)
     wfcinit:atom :      0.46s CPU      0.73s WALL (       4 calls)
     wfcinit:wfcr :    326.00s CPU    326.34s WALL (       4 calls)
     potinit      :      3.98s CPU      4.20s WALL (       1 calls)
     hinit0       :      1.72s CPU      1.78s WALL (       1 calls)

     Called by electrons:
     c_bands      :  13597.65s CPU  13617.83s WALL (      14 calls)
     sum_band     :   1238.27s CPU   1271.56s WALL (      14 calls)
     v_of_rho     :     22.54s CPU     24.03s WALL (      14 calls)
     v_h          :      1.46s CPU      1.47s WALL (      14 calls)
     v_xc         :     24.12s CPU     25.92s WALL (      16 calls)
     newd         :    196.77s CPU    225.93s WALL (      14 calls)
     PAW_pot      :     28.60s CPU     28.61s WALL (      14 calls)
     mix_rho      :      4.06s CPU      4.08s WALL (      14 calls)

     Called by c_bands:
     init_us_2    :     13.64s CPU     13.75s WALL (     124 calls)
     cegterg      :  13520.90s CPU  13541.03s WALL (      57 calls)

     Called by sum_band:
     sum_band:wei :      0.01s CPU      0.01s WALL (      14 calls)
     sum_band:loo :    918.78s CPU    918.98s WALL (      14 calls)
     sum_band:buf :      2.60s CPU      2.60s WALL (      56 calls)
     sum_band:ini :      6.12s CPU      6.12s WALL (      56 calls)
     sum_band:cal :    613.23s CPU    613.28s WALL (      56 calls)
     sum_band:bec :      0.17s CPU      0.17s WALL (      56 calls)
     addusdens    :    316.34s CPU    349.44s WALL (      14 calls)
     addusd:skk   :      3.31s CPU      5.68s WALL (      42 calls)
     addusd:dgemm :    196.08s CPU    221.29s WALL (      42 calls)
     addusd:qvan2 :    110.49s CPU    110.51s WALL (      42 calls)

     Called by *egterg:
     cdiaghg      :     65.63s CPU     65.65s WALL (     392 calls)
     cegterg:over :   1767.26s CPU   1767.40s WALL (     339 calls)
     cegterg:upda :   1143.56s CPU   1146.71s WALL (     339 calls)
     cegterg:last :   2794.45s CPU   2794.68s WALL (     133 calls)
     h_psi        :   5437.44s CPU   5443.61s WALL (     400 calls)
     s_psi        :   1955.12s CPU   1955.28s WALL (     400 calls)
     g_psi        :     19.30s CPU     19.30s WALL (     339 calls)

     Called by h_psi:
     h_psi:calbec :   1801.24s CPU   1801.38s WALL (     400 calls)
     vloc_psi     :   1670.91s CPU   1671.71s WALL (     400 calls)
     add_vuspsi   :   1958.09s CPU   1958.26s WALL (     400 calls)

     General routines
     calbec       :   2634.45s CPU   2634.67s WALL (     476 calls)
     fft          :     14.63s CPU     14.63s WALL (     206 calls)
     ffts         :      0.82s CPU      0.82s WALL (      28 calls)
     fftw         :   1697.16s CPU   1697.75s WALL (   81180 calls)
     interpolate  :      1.78s CPU      1.80s WALL (      14 calls)

     Parallel routines

     PAW routines
     PAW_pot      :     28.60s CPU     28.61s WALL (      14 calls)
     PAW_symme    :      0.07s CPU      0.07s WALL (      28 calls)

     PWSCF        :      4h26m CPU      4h27m WALL


   This run was terminated on:   8:19:26   2Apr2024            

=------------------------------------------------------------------------------=
   JOB DONE.
=------------------------------------------------------------------------------=
