### Running on host: fes33

     Program PWSCF v.6.7MaX starts on  2Apr2024 at  8:19:27 

     This program is part of the open-source Quantum ESPRESSO suite
     for quantum simulation of materials; please cite
         "P. Giannozzi et al., J. Phys.:Condens. Matter 21 395502 (2009);
         "P. Giannozzi et al., J. Phys.:Condens. Matter 29 465901 (2017);
          URL http://www.quantum-espresso.org", 
     in publications or presentations arising from this work. More details at
     http://www.quantum-espresso.org/quote

     Parallel version (MPI), running on     1 processors

     MPI processes distributed on     1 nodes
     Reading input from pwscf_ecutwfc-48.in

     Current dimensions of program PWSCF are:
     Max number of different atomic species (ntypx) = 10
     Max number of k-points (npk) =  40000
     Max angular momentum in pseudopotentials (lmaxx) =  3
     file Pb.pbe-dn-kjpaw_psl.0.2.2.UPF: wavefunction(s)  6S renormalized

     Subspace diagonalization in iterative solution of the eigenvalue problem:
     a serial algorithm will be used

     Found symmetry operation: I + (  0.0000  0.0000  0.5000)
     This is a supercell, fractional translations are disabled
     Message from routine setup:
     using ibrav=0 with symmetry is DISCOURAGED, use correct ibrav instead

     G-vector sticks info
     --------------------
     sticks:   dense  smooth     PW     G-vecs:    dense   smooth      PW
     Sum       14817    8897   2321              1356433   630619   84127



     bravais-lattice index     =            0
     lattice parameter (alat)  =      24.1188  a.u.
     unit-cell volume          =   14030.3801 (a.u.)^3
     number of atoms/cell      =           40
     number of atomic types    =            3
     number of electrons       =       352.00
     number of Kohn-Sham states=          211
     kinetic-energy cutoff     =      48.0000  Ry
     charge density cutoff     =     320.0000  Ry
     scf convergence threshold =      8.0E-09
     mixing beta               =       0.4000
     number of iterations used =            8  plain     mixing
     Exchange-correlation= SLA  PW   PBX  PBC
                           (   1   4   3   4   0   0   0)

     celldm(1)=  24.118843  celldm(2)=   0.000000  celldm(3)=   0.000000
     celldm(4)=   0.000000  celldm(5)=   0.000000  celldm(6)=   0.000000

     crystal axes: (cart. coord. in units of alat)
               a(1) = (   1.000000   0.000000   0.000000 )  
               a(2) = (   0.000000   1.000000   0.000000 )  
               a(3) = (   0.000000   0.000000   1.000000 )  

     reciprocal axes: (cart. coord. in units 2 pi/alat)
               b(1) = (  1.000000  0.000000  0.000000 )  
               b(2) = (  0.000000  1.000000  0.000000 )  
               b(3) = (  0.000000  0.000000  1.000000 )  


     PseudoPot. # 1 for Cs read from file:
     ../../pseudo/Cs_pbe_v1.uspp.F.UPF
     MD5 check sum: 3476d69cb178dfad3ffaa59df4e07ca4
     Pseudo is Ultrasoft + core correction, Zval =  9.0
     Generated by new atomic code, or converted to UPF format
     Using radial grid of  905 points,  6 beta functions with: 
                l(1) =   0
                l(2) =   0
                l(3) =   1
                l(4) =   1
                l(5) =   2
                l(6) =   2
     Q(r) pseudized with  6 coefficients,  rinner =    1.500   1.500   1.500
                                                       1.500   1.500

     PseudoPot. # 2 for I  read from file:
     ../../pseudo/I.pbe-n-kjpaw_psl.0.2.UPF
     MD5 check sum: d4ef18d9c8f18dc85e5843bca1e50dc0
     Pseudo is Projector augmented-wave + core cor, Zval =  7.0
     Generated using "atomic" code by A. Dal Corso  v.5.0.99 svn rev. 10869
     Shape of augmentation charge: PSQ
     Using radial grid of 1247 points,  4 beta functions with: 
                l(1) =   0
                l(2) =   0
                l(3) =   1
                l(4) =   1
     Q(r) pseudized with 0 coefficients 


     PseudoPot. # 3 for Pb read from file:
     ../../pseudo/Pb.pbe-dn-kjpaw_psl.0.2.2.UPF
     MD5 check sum: 9d431e6316058b74ade52399a6cf67da
     Pseudo is Projector augmented-wave + core cor, Zval = 14.0
     Generated using "atomic" code by A. Dal Corso  v.5.0.99 svn rev. 10869
     Shape of augmentation charge: PSQ
     Using radial grid of 1281 points,  6 beta functions with: 
                l(1) =   0
                l(2) =   0
                l(3) =   1
                l(4) =   1
                l(5) =   2
                l(6) =   2
     Q(r) pseudized with 0 coefficients 


     atomic species   valence    mass     pseudopotential
        Cs             9.00   132.90545     Cs( 1.00)
        I              7.00   126.90447     I ( 1.00)
        Pb            14.00   207.20000     Pb( 1.00)

     48 Sym. Ops., with inversion, found


                                    s                        frac. trans.

      isym =  1     identity                                     

 cryst.   s( 1) = (     1          0          0      )
                  (     0          1          0      )
                  (     0          0          1      )

 cart.    s( 1) = (  1.0000000  0.0000000  0.0000000 )
                  (  0.0000000  1.0000000  0.0000000 )
                  (  0.0000000  0.0000000  1.0000000 )


      isym =  2     180 deg rotation - cart. axis [0,0,1]        

 cryst.   s( 2) = (    -1          0          0      )
                  (     0         -1          0      )
                  (     0          0          1      )

 cart.    s( 2) = ( -1.0000000  0.0000000  0.0000000 )
                  (  0.0000000 -1.0000000  0.0000000 )
                  (  0.0000000  0.0000000  1.0000000 )


      isym =  3     180 deg rotation - cart. axis [0,1,0]        

 cryst.   s( 3) = (    -1          0          0      )
                  (     0          1          0      )
                  (     0          0         -1      )

 cart.    s( 3) = ( -1.0000000  0.0000000  0.0000000 )
                  (  0.0000000  1.0000000  0.0000000 )
                  (  0.0000000  0.0000000 -1.0000000 )


      isym =  4     180 deg rotation - cart. axis [1,0,0]        

 cryst.   s( 4) = (     1          0          0      )
                  (     0         -1          0      )
                  (     0          0         -1      )

 cart.    s( 4) = (  1.0000000  0.0000000  0.0000000 )
                  (  0.0000000 -1.0000000  0.0000000 )
                  (  0.0000000  0.0000000 -1.0000000 )


      isym =  5     180 deg rotation - cart. axis [1,1,0]        

 cryst.   s( 5) = (     0          1          0      )
                  (     1          0          0      )
                  (     0          0         -1      )

 cart.    s( 5) = (  0.0000000  1.0000000  0.0000000 )
                  (  1.0000000  0.0000000  0.0000000 )
                  (  0.0000000  0.0000000 -1.0000000 )


      isym =  6     180 deg rotation - cart. axis [1,-1,0]       

 cryst.   s( 6) = (     0         -1          0      )
                  (    -1          0          0      )
                  (     0          0         -1      )

 cart.    s( 6) = (  0.0000000 -1.0000000  0.0000000 )
                  ( -1.0000000  0.0000000  0.0000000 )
                  (  0.0000000  0.0000000 -1.0000000 )


      isym =  7      90 deg rotation - cart. axis [0,0,-1]       

 cryst.   s( 7) = (     0         -1          0      )
                  (     1          0          0      )
                  (     0          0          1      )

 cart.    s( 7) = (  0.0000000  1.0000000  0.0000000 )
                  ( -1.0000000  0.0000000  0.0000000 )
                  (  0.0000000  0.0000000  1.0000000 )


      isym =  8      90 deg rotation - cart. axis [0,0,1]        

 cryst.   s( 8) = (     0          1          0      )
                  (    -1          0          0      )
                  (     0          0          1      )

 cart.    s( 8) = (  0.0000000 -1.0000000  0.0000000 )
                  (  1.0000000  0.0000000  0.0000000 )
                  (  0.0000000  0.0000000  1.0000000 )


      isym =  9     180 deg rotation - cart. axis [1,0,1]        

 cryst.   s( 9) = (     0          0          1      )
                  (     0         -1          0      )
                  (     1          0          0      )

 cart.    s( 9) = (  0.0000000  0.0000000  1.0000000 )
                  (  0.0000000 -1.0000000  0.0000000 )
                  (  1.0000000  0.0000000  0.0000000 )


      isym = 10     180 deg rotation - cart. axis [-1,0,1]       

 cryst.   s(10) = (     0          0         -1      )
                  (     0         -1          0      )
                  (    -1          0          0      )

 cart.    s(10) = (  0.0000000  0.0000000 -1.0000000 )
                  (  0.0000000 -1.0000000  0.0000000 )
                  ( -1.0000000  0.0000000  0.0000000 )


      isym = 11      90 deg rotation - cart. axis [0,1,0]        

 cryst.   s(11) = (     0          0         -1      )
                  (     0          1          0      )
                  (     1          0          0      )

 cart.    s(11) = (  0.0000000  0.0000000  1.0000000 )
                  (  0.0000000  1.0000000  0.0000000 )
                  ( -1.0000000  0.0000000  0.0000000 )


      isym = 12      90 deg rotation - cart. axis [0,-1,0]       

 cryst.   s(12) = (     0          0          1      )
                  (     0          1          0      )
                  (    -1          0          0      )

 cart.    s(12) = (  0.0000000  0.0000000 -1.0000000 )
                  (  0.0000000  1.0000000  0.0000000 )
                  (  1.0000000  0.0000000  0.0000000 )


      isym = 13     180 deg rotation - cart. axis [0,1,1]        

 cryst.   s(13) = (    -1          0          0      )
                  (     0          0          1      )
                  (     0          1          0      )

 cart.    s(13) = ( -1.0000000  0.0000000  0.0000000 )
                  (  0.0000000  0.0000000  1.0000000 )
                  (  0.0000000  1.0000000  0.0000000 )


      isym = 14     180 deg rotation - cart. axis [0,1,-1]       

 cryst.   s(14) = (    -1          0          0      )
                  (     0          0         -1      )
                  (     0         -1          0      )

 cart.    s(14) = ( -1.0000000  0.0000000  0.0000000 )
                  (  0.0000000  0.0000000 -1.0000000 )
                  (  0.0000000 -1.0000000  0.0000000 )


      isym = 15      90 deg rotation - cart. axis [-1,0,0]       

 cryst.   s(15) = (     1          0          0      )
                  (     0          0         -1      )
                  (     0          1          0      )

 cart.    s(15) = (  1.0000000  0.0000000  0.0000000 )
                  (  0.0000000  0.0000000  1.0000000 )
                  (  0.0000000 -1.0000000  0.0000000 )


      isym = 16      90 deg rotation - cart. axis [1,0,0]        

 cryst.   s(16) = (     1          0          0      )
                  (     0          0          1      )
                  (     0         -1          0      )

 cart.    s(16) = (  1.0000000  0.0000000  0.0000000 )
                  (  0.0000000  0.0000000 -1.0000000 )
                  (  0.0000000  1.0000000  0.0000000 )


      isym = 17     120 deg rotation - cart. axis [-1,-1,-1]     

 cryst.   s(17) = (     0          0          1      )
                  (     1          0          0      )
                  (     0          1          0      )

 cart.    s(17) = (  0.0000000  1.0000000  0.0000000 )
                  (  0.0000000  0.0000000  1.0000000 )
                  (  1.0000000  0.0000000  0.0000000 )


      isym = 18     120 deg rotation - cart. axis [-1,1,1]       

 cryst.   s(18) = (     0          0         -1      )
                  (    -1          0          0      )
                  (     0          1          0      )

 cart.    s(18) = (  0.0000000 -1.0000000  0.0000000 )
                  (  0.0000000  0.0000000  1.0000000 )
                  ( -1.0000000  0.0000000  0.0000000 )


      isym = 19     120 deg rotation - cart. axis [1,1,-1]       

 cryst.   s(19) = (     0          0         -1      )
                  (     1          0          0      )
                  (     0         -1          0      )

 cart.    s(19) = (  0.0000000  1.0000000  0.0000000 )
                  (  0.0000000  0.0000000 -1.0000000 )
                  ( -1.0000000  0.0000000  0.0000000 )


      isym = 20     120 deg rotation - cart. axis [1,-1,1]       

 cryst.   s(20) = (     0          0          1      )
                  (    -1          0          0      )
                  (     0         -1          0      )

 cart.    s(20) = (  0.0000000 -1.0000000  0.0000000 )
                  (  0.0000000  0.0000000 -1.0000000 )
                  (  1.0000000  0.0000000  0.0000000 )


      isym = 21     120 deg rotation - cart. axis [1,1,1]        

 cryst.   s(21) = (     0          1          0      )
                  (     0          0          1      )
                  (     1          0          0      )

 cart.    s(21) = (  0.0000000  0.0000000  1.0000000 )
                  (  1.0000000  0.0000000  0.0000000 )
                  (  0.0000000  1.0000000  0.0000000 )


      isym = 22     120 deg rotation - cart. axis [-1,1,-1]      

 cryst.   s(22) = (     0         -1          0      )
                  (     0          0         -1      )
                  (     1          0          0      )

 cart.    s(22) = (  0.0000000  0.0000000  1.0000000 )
                  ( -1.0000000  0.0000000  0.0000000 )
                  (  0.0000000 -1.0000000  0.0000000 )


      isym = 23     120 deg rotation - cart. axis [1,-1,-1]      

 cryst.   s(23) = (     0         -1          0      )
                  (     0          0          1      )
                  (    -1          0          0      )

 cart.    s(23) = (  0.0000000  0.0000000 -1.0000000 )
                  ( -1.0000000  0.0000000  0.0000000 )
                  (  0.0000000  1.0000000  0.0000000 )


      isym = 24     120 deg rotation - cart. axis [-1,-1,1]      

 cryst.   s(24) = (     0          1          0      )
                  (     0          0         -1      )
                  (    -1          0          0      )

 cart.    s(24) = (  0.0000000  0.0000000 -1.0000000 )
                  (  1.0000000  0.0000000  0.0000000 )
                  (  0.0000000 -1.0000000  0.0000000 )


      isym = 25     inversion                                    

 cryst.   s(25) = (    -1          0          0      )
                  (     0         -1          0      )
                  (     0          0         -1      )

 cart.    s(25) = ( -1.0000000  0.0000000  0.0000000 )
                  (  0.0000000 -1.0000000  0.0000000 )
                  (  0.0000000  0.0000000 -1.0000000 )


      isym = 26     inv. 180 deg rotation - cart. axis [0,0,1]   

 cryst.   s(26) = (     1          0          0      )
                  (     0          1          0      )
                  (     0          0         -1      )

 cart.    s(26) = (  1.0000000  0.0000000  0.0000000 )
                  (  0.0000000  1.0000000  0.0000000 )
                  (  0.0000000  0.0000000 -1.0000000 )


      isym = 27     inv. 180 deg rotation - cart. axis [0,1,0]   

 cryst.   s(27) = (     1          0          0      )
                  (     0         -1          0      )
                  (     0          0          1      )

 cart.    s(27) = (  1.0000000  0.0000000  0.0000000 )
                  (  0.0000000 -1.0000000  0.0000000 )
                  (  0.0000000  0.0000000  1.0000000 )


      isym = 28     inv. 180 deg rotation - cart. axis [1,0,0]   

 cryst.   s(28) = (    -1          0          0      )
                  (     0          1          0      )
                  (     0          0          1      )

 cart.    s(28) = ( -1.0000000  0.0000000  0.0000000 )
                  (  0.0000000  1.0000000  0.0000000 )
                  (  0.0000000  0.0000000  1.0000000 )


      isym = 29     inv. 180 deg rotation - cart. axis [1,1,0]   

 cryst.   s(29) = (     0         -1          0      )
                  (    -1          0          0      )
                  (     0          0          1      )

 cart.    s(29) = (  0.0000000 -1.0000000  0.0000000 )
                  ( -1.0000000  0.0000000  0.0000000 )
                  (  0.0000000  0.0000000  1.0000000 )


      isym = 30     inv. 180 deg rotation - cart. axis [1,-1,0]  

 cryst.   s(30) = (     0          1          0      )
                  (     1          0          0      )
                  (     0          0          1      )

 cart.    s(30) = (  0.0000000  1.0000000  0.0000000 )
                  (  1.0000000  0.0000000  0.0000000 )
                  (  0.0000000  0.0000000  1.0000000 )


      isym = 31     inv.  90 deg rotation - cart. axis [0,0,-1]  

 cryst.   s(31) = (     0          1          0      )
                  (    -1          0          0      )
                  (     0          0         -1      )

 cart.    s(31) = (  0.0000000 -1.0000000  0.0000000 )
                  (  1.0000000  0.0000000  0.0000000 )
                  (  0.0000000  0.0000000 -1.0000000 )


      isym = 32     inv.  90 deg rotation - cart. axis [0,0,1]   

 cryst.   s(32) = (     0         -1          0      )
                  (     1          0          0      )
                  (     0          0         -1      )

 cart.    s(32) = (  0.0000000  1.0000000  0.0000000 )
                  ( -1.0000000  0.0000000  0.0000000 )
                  (  0.0000000  0.0000000 -1.0000000 )


      isym = 33     inv. 180 deg rotation - cart. axis [1,0,1]   

 cryst.   s(33) = (     0          0         -1      )
                  (     0          1          0      )
                  (    -1          0          0      )

 cart.    s(33) = (  0.0000000  0.0000000 -1.0000000 )
                  (  0.0000000  1.0000000  0.0000000 )
                  ( -1.0000000  0.0000000  0.0000000 )


      isym = 34     inv. 180 deg rotation - cart. axis [-1,0,1]  

 cryst.   s(34) = (     0          0          1      )
                  (     0          1          0      )
                  (     1          0          0      )

 cart.    s(34) = (  0.0000000  0.0000000  1.0000000 )
                  (  0.0000000  1.0000000  0.0000000 )
                  (  1.0000000  0.0000000  0.0000000 )


      isym = 35     inv.  90 deg rotation - cart. axis [0,1,0]   

 cryst.   s(35) = (     0          0          1      )
                  (     0         -1          0      )
                  (    -1          0          0      )

 cart.    s(35) = (  0.0000000  0.0000000 -1.0000000 )
                  (  0.0000000 -1.0000000  0.0000000 )
                  (  1.0000000  0.0000000  0.0000000 )


      isym = 36     inv.  90 deg rotation - cart. axis [0,-1,0]  

 cryst.   s(36) = (     0          0         -1      )
                  (     0         -1          0      )
                  (     1          0          0      )

 cart.    s(36) = (  0.0000000  0.0000000  1.0000000 )
                  (  0.0000000 -1.0000000  0.0000000 )
                  ( -1.0000000  0.0000000  0.0000000 )


      isym = 37     inv. 180 deg rotation - cart. axis [0,1,1]   

 cryst.   s(37) = (     1          0          0      )
                  (     0          0         -1      )
                  (     0         -1          0      )

 cart.    s(37) = (  1.0000000  0.0000000  0.0000000 )
                  (  0.0000000  0.0000000 -1.0000000 )
                  (  0.0000000 -1.0000000  0.0000000 )


      isym = 38     inv. 180 deg rotation - cart. axis [0,1,-1]  

 cryst.   s(38) = (     1          0          0      )
                  (     0          0          1      )
                  (     0          1          0      )

 cart.    s(38) = (  1.0000000  0.0000000  0.0000000 )
                  (  0.0000000  0.0000000  1.0000000 )
                  (  0.0000000  1.0000000  0.0000000 )


      isym = 39     inv.  90 deg rotation - cart. axis [-1,0,0]  

 cryst.   s(39) = (    -1          0          0      )
                  (     0          0          1      )
                  (     0         -1          0      )

 cart.    s(39) = ( -1.0000000  0.0000000  0.0000000 )
                  (  0.0000000  0.0000000 -1.0000000 )
                  (  0.0000000  1.0000000  0.0000000 )


      isym = 40     inv.  90 deg rotation - cart. axis [1,0,0]   

 cryst.   s(40) = (    -1          0          0      )
                  (     0          0         -1      )
                  (     0          1          0      )

 cart.    s(40) = ( -1.0000000  0.0000000  0.0000000 )
                  (  0.0000000  0.0000000  1.0000000 )
                  (  0.0000000 -1.0000000  0.0000000 )


      isym = 41     inv. 120 deg rotation - cart. axis [-1,-1,-1]

 cryst.   s(41) = (     0          0         -1      )
                  (    -1          0          0      )
                  (     0         -1          0      )

 cart.    s(41) = (  0.0000000 -1.0000000  0.0000000 )
                  (  0.0000000  0.0000000 -1.0000000 )
                  ( -1.0000000  0.0000000  0.0000000 )


      isym = 42     inv. 120 deg rotation - cart. axis [-1,1,1]  

 cryst.   s(42) = (     0          0          1      )
                  (     1          0          0      )
                  (     0         -1          0      )

 cart.    s(42) = (  0.0000000  1.0000000  0.0000000 )
                  (  0.0000000  0.0000000 -1.0000000 )
                  (  1.0000000  0.0000000  0.0000000 )


      isym = 43     inv. 120 deg rotation - cart. axis [1,1,-1]  

 cryst.   s(43) = (     0          0          1      )
                  (    -1          0          0      )
                  (     0          1          0      )

 cart.    s(43) = (  0.0000000 -1.0000000  0.0000000 )
                  (  0.0000000  0.0000000  1.0000000 )
                  (  1.0000000  0.0000000  0.0000000 )


      isym = 44     inv. 120 deg rotation - cart. axis [1,-1,1]  

 cryst.   s(44) = (     0          0         -1      )
                  (     1          0          0      )
                  (     0          1          0      )

 cart.    s(44) = (  0.0000000  1.0000000  0.0000000 )
                  (  0.0000000  0.0000000  1.0000000 )
                  ( -1.0000000  0.0000000  0.0000000 )


      isym = 45     inv. 120 deg rotation - cart. axis [1,1,1]   

 cryst.   s(45) = (     0         -1          0      )
                  (     0          0         -1      )
                  (    -1          0          0      )

 cart.    s(45) = (  0.0000000  0.0000000 -1.0000000 )
                  ( -1.0000000  0.0000000  0.0000000 )
                  (  0.0000000 -1.0000000  0.0000000 )


      isym = 46     inv. 120 deg rotation - cart. axis [-1,1,-1] 

 cryst.   s(46) = (     0          1          0      )
                  (     0          0          1      )
                  (    -1          0          0      )

 cart.    s(46) = (  0.0000000  0.0000000 -1.0000000 )
                  (  1.0000000  0.0000000  0.0000000 )
                  (  0.0000000  1.0000000  0.0000000 )


      isym = 47     inv. 120 deg rotation - cart. axis [1,-1,-1] 

 cryst.   s(47) = (     0          1          0      )
                  (     0          0         -1      )
                  (     1          0          0      )

 cart.    s(47) = (  0.0000000  0.0000000  1.0000000 )
                  (  1.0000000  0.0000000  0.0000000 )
                  (  0.0000000 -1.0000000  0.0000000 )


      isym = 48     inv. 120 deg rotation - cart. axis [-1,-1,1] 

 cryst.   s(48) = (     0         -1          0      )
                  (     0          0          1      )
                  (     1          0          0      )

 cart.    s(48) = (  0.0000000  0.0000000  1.0000000 )
                  ( -1.0000000  0.0000000  0.0000000 )
                  (  0.0000000  1.0000000  0.0000000 )


   Cartesian axes

     site n.     atom                  positions (alat units)
         1           Cs  tau(   1) = (   0.2500001   0.2500001   0.2500001  )
         2           Cs  tau(   2) = (   0.2500001   0.2500001   0.7499999  )
         3           Cs  tau(   3) = (   0.2500001   0.7499999   0.2500001  )
         4           Cs  tau(   4) = (   0.2500001   0.7499999   0.7499999  )
         5           Cs  tau(   5) = (   0.7499999   0.2500001   0.2500001  )
         6           Cs  tau(   6) = (   0.7499999   0.2500001   0.7499999  )
         7           Cs  tau(   7) = (   0.7499999   0.7499999   0.2500001  )
         8           Cs  tau(   8) = (   0.7499999   0.7499999   0.7499999  )
         9           Pb  tau(   9) = (   0.0000000   0.0000000   0.0000000  )
        10           Pb  tau(  10) = (   0.0000000   0.0000000   0.5000000  )
        11           Pb  tau(  11) = (   0.0000000   0.5000000   0.0000000  )
        12           Pb  tau(  12) = (   0.0000000   0.5000000   0.5000000  )
        13           Pb  tau(  13) = (   0.5000000   0.0000000   0.0000000  )
        14           Pb  tau(  14) = (   0.5000000   0.0000000   0.5000000  )
        15           Pb  tau(  15) = (   0.5000000   0.5000000   0.0000000  )
        16           Pb  tau(  16) = (   0.5000000   0.5000000   0.5000000  )
        17           I   tau(  17) = (   0.0000000   0.0000000   0.2500016  )
        18           I   tau(  18) = (   0.0000000   0.0000000   0.7499984  )
        19           I   tau(  19) = (   0.0000000   0.5000000   0.2500017  )
        20           I   tau(  20) = (   0.0000000   0.5000000   0.7499983  )
        21           I   tau(  21) = (   0.5000000   0.0000000   0.2500017  )
        22           I   tau(  22) = (   0.5000000   0.0000000   0.7499983  )
        23           I   tau(  23) = (   0.5000000   0.5000000   0.2500017  )
        24           I   tau(  24) = (   0.5000000   0.5000000   0.7499983  )
        25           I   tau(  25) = (   0.0000000   0.2500016   0.0000000  )
        26           I   tau(  26) = (   0.0000000   0.2500017   0.5000000  )
        27           I   tau(  27) = (   0.0000000   0.7499984   0.0000000  )
        28           I   tau(  28) = (   0.0000000   0.7499983   0.5000000  )
        29           I   tau(  29) = (   0.5000000   0.2500017   0.0000000  )
        30           I   tau(  30) = (   0.5000000   0.2500017   0.5000000  )
        31           I   tau(  31) = (   0.5000000   0.7499983   0.0000000  )
        32           I   tau(  32) = (   0.5000000   0.7499983   0.5000000  )
        33           I   tau(  33) = (   0.2500016   0.0000000   0.0000000  )
        34           I   tau(  34) = (   0.2500017   0.0000000   0.5000000  )
        35           I   tau(  35) = (   0.2500017   0.5000000   0.0000000  )
        36           I   tau(  36) = (   0.2500017   0.5000000   0.5000000  )
        37           I   tau(  37) = (   0.7499984   0.0000000   0.0000000  )
        38           I   tau(  38) = (   0.7499983   0.0000000   0.5000000  )
        39           I   tau(  39) = (   0.7499983   0.5000000   0.0000000  )
        40           I   tau(  40) = (   0.7499983   0.5000000   0.5000000  )

   Crystallographic axes

     site n.     atom                  positions (cryst. coord.)
         1           Cs  tau(   1) = (  0.2500001  0.2500001  0.2500001  )
         2           Cs  tau(   2) = (  0.2500001  0.2500001  0.7499999  )
         3           Cs  tau(   3) = (  0.2500001  0.7499999  0.2500001  )
         4           Cs  tau(   4) = (  0.2500001  0.7499999  0.7499999  )
         5           Cs  tau(   5) = (  0.7499999  0.2500001  0.2500001  )
         6           Cs  tau(   6) = (  0.7499999  0.2500001  0.7499999  )
         7           Cs  tau(   7) = (  0.7499999  0.7499999  0.2500001  )
         8           Cs  tau(   8) = (  0.7499999  0.7499999  0.7499999  )
         9           Pb  tau(   9) = (  0.0000000  0.0000000  0.0000000  )
        10           Pb  tau(  10) = (  0.0000000  0.0000000  0.5000000  )
        11           Pb  tau(  11) = (  0.0000000  0.5000000  0.0000000  )
        12           Pb  tau(  12) = (  0.0000000  0.5000000  0.5000000  )
        13           Pb  tau(  13) = (  0.5000000  0.0000000  0.0000000  )
        14           Pb  tau(  14) = (  0.5000000  0.0000000  0.5000000  )
        15           Pb  tau(  15) = (  0.5000000  0.5000000  0.0000000  )
        16           Pb  tau(  16) = (  0.5000000  0.5000000  0.5000000  )
        17           I   tau(  17) = (  0.0000000  0.0000000  0.2500016  )
        18           I   tau(  18) = (  0.0000000  0.0000000  0.7499984  )
        19           I   tau(  19) = (  0.0000000  0.5000000  0.2500017  )
        20           I   tau(  20) = (  0.0000000  0.5000000  0.7499983  )
        21           I   tau(  21) = (  0.5000000  0.0000000  0.2500017  )
        22           I   tau(  22) = (  0.5000000  0.0000000  0.7499983  )
        23           I   tau(  23) = (  0.5000000  0.5000000  0.2500017  )
        24           I   tau(  24) = (  0.5000000  0.5000000  0.7499983  )
        25           I   tau(  25) = (  0.0000000  0.2500016  0.0000000  )
        26           I   tau(  26) = (  0.0000000  0.2500017  0.5000000  )
        27           I   tau(  27) = (  0.0000000  0.7499984  0.0000000  )
        28           I   tau(  28) = (  0.0000000  0.7499983  0.5000000  )
        29           I   tau(  29) = (  0.5000000  0.2500017  0.0000000  )
        30           I   tau(  30) = (  0.5000000  0.2500017  0.5000000  )
        31           I   tau(  31) = (  0.5000000  0.7499983  0.0000000  )
        32           I   tau(  32) = (  0.5000000  0.7499983  0.5000000  )
        33           I   tau(  33) = (  0.2500016  0.0000000  0.0000000  )
        34           I   tau(  34) = (  0.2500017  0.0000000  0.5000000  )
        35           I   tau(  35) = (  0.2500017  0.5000000  0.0000000  )
        36           I   tau(  36) = (  0.2500017  0.5000000  0.5000000  )
        37           I   tau(  37) = (  0.7499984  0.0000000  0.0000000  )
        38           I   tau(  38) = (  0.7499983  0.0000000  0.5000000  )
        39           I   tau(  39) = (  0.7499983  0.5000000  0.0000000  )
        40           I   tau(  40) = (  0.7499983  0.5000000  0.5000000  )

     number of k points=     4  Marzari-Vanderbilt smearing, width (Ry)=  0.0147
                       cart. coord. in units 2pi/alat
        k(    1) = (   0.0000000   0.0000000   0.0000000), wk =   0.0740741
        k(    2) = (   0.0000000   0.0000000   0.3333333), wk =   0.4444444
        k(    3) = (   0.0000000   0.3333333   0.3333333), wk =   0.8888889
        k(    4) = (   0.3333333   0.3333333   0.3333333), wk =   0.5925926

                       cryst. coord.
        k(    1) = (   0.0000000   0.0000000   0.0000000), wk =   0.0740741
        k(    2) = (   0.0000000   0.0000000   0.3333333), wk =   0.4444444
        k(    3) = (   0.0000000   0.3333333   0.3333333), wk =   0.8888889
        k(    4) = (   0.3333333   0.3333333   0.3333333), wk =   0.5925926

     Dense  grid:  1356433 G-vectors     FFT dimensions: ( 144, 144, 144)

     Smooth grid:   630619 G-vectors     FFT dimensions: ( 108, 108, 108)

     Dynamical RAM for                 wfc:     253.68 MB

     Dynamical RAM for     wfc (w. buffer):    1268.40 MB

     Dynamical RAM for           str. fact:      62.09 MB

     Dynamical RAM for           local pot:       0.00 MB

     Dynamical RAM for          nlocal pot:     577.09 MB

     Dynamical RAM for                qrad:       4.31 MB

     Dynamical RAM for          rho,v,vnew:     130.44 MB

     Dynamical RAM for               rhoin:      43.48 MB

     Dynamical RAM for            rho*nmix:     331.16 MB

     Dynamical RAM for           G-vectors:      82.43 MB

     Dynamical RAM for          h,s,v(r/c):       8.15 MB

     Dynamical RAM for          <psi|beta>:       1.55 MB

     Dynamical RAM for                 psi:     507.36 MB

     Dynamical RAM for                hpsi:     507.36 MB

     Dynamical RAM for                spsi:     507.36 MB

     Dynamical RAM for      wfcinit/wfcrot:     655.73 MB

     Dynamical RAM for           addusdens:    4346.48 MB

     Dynamical RAM for          addusforce:    5309.01 MB

     Dynamical RAM for         addusstress:    4160.20 MB

     Estimated static dynamical RAM per process >       2.63 GB

     Estimated max dynamical RAM per process >       7.82 GB

     Initial potential from superposition of free atoms

     starting charge  351.66429, renormalised to  352.00000
     Starting wfcs are  272 randomized atomic wfcs
     Checking if some PAW data can be deallocated... 

     total cpu time spent up to now is      398.7 secs

     Self-consistent Calculation

     iteration #  1     ecut=    48.00 Ry     beta= 0.40
     Davidson diagonalization with overlap
     ethr =  1.00E-02,  avg # of iterations =  2.8

     Threshold (ethr) on eigenvalues was too large:
     Diagonalizing with lowered threshold

     Davidson diagonalization with overlap
     ethr =  2.58E-04,  avg # of iterations = 10.0

     total cpu time spent up to now is     2512.4 secs

     total energy              =  -16565.70264482 Ry
     estimated scf accuracy    <       0.82237155 Ry

     iteration #  2     ecut=    48.00 Ry     beta= 0.40
     Davidson diagonalization with overlap
     ethr =  2.34E-04,  avg # of iterations =  5.2

     total cpu time spent up to now is     3677.4 secs

     total energy              =  -16565.83018749 Ry
     estimated scf accuracy    <       0.05282555 Ry

     iteration #  3     ecut=    48.00 Ry     beta= 0.40
     Davidson diagonalization with overlap
     c_bands:  4 eigenvalues not converged
     ethr =  1.50E-05,  avg # of iterations = 14.5

     total cpu time spent up to now is     5589.8 secs

     total energy              =  -16565.85794443 Ry
     estimated scf accuracy    <       0.01520533 Ry

     iteration #  4     ecut=    48.00 Ry     beta= 0.40
     Davidson diagonalization with overlap
     c_bands:  2 eigenvalues not converged
     ethr =  4.32E-06,  avg # of iterations =  9.0

     total cpu time spent up to now is     6870.0 secs

     total energy              =  -16565.86063845 Ry
     estimated scf accuracy    <       0.00217596 Ry

     iteration #  5     ecut=    48.00 Ry     beta= 0.40
     Davidson diagonalization with overlap
     c_bands:  1 eigenvalues not converged
     ethr =  6.18E-07,  avg # of iterations = 12.0

     total cpu time spent up to now is     8188.2 secs

     total energy              =  -16565.86116619 Ry
     estimated scf accuracy    <       0.00028452 Ry

     iteration #  6     ecut=    48.00 Ry     beta= 0.40
     Davidson diagonalization with overlap
     ethr =  8.08E-08,  avg # of iterations =  6.5

     total cpu time spent up to now is     9539.9 secs

     total energy              =  -16565.86123191 Ry
     estimated scf accuracy    <       0.00008742 Ry

     iteration #  7     ecut=    48.00 Ry     beta= 0.40
     Davidson diagonalization with overlap
     ethr =  2.48E-08,  avg # of iterations =  4.2

     total cpu time spent up to now is    10893.0 secs

     total energy              =  -16565.86125621 Ry
     estimated scf accuracy    <       0.00001084 Ry

     iteration #  8     ecut=    48.00 Ry     beta= 0.40
     Davidson diagonalization with overlap
     ethr =  3.08E-09,  avg # of iterations =  5.2

     total cpu time spent up to now is    12106.0 secs

     total energy              =  -16565.86125923 Ry
     estimated scf accuracy    <       0.00000316 Ry

     iteration #  9     ecut=    48.00 Ry     beta= 0.40
     Davidson diagonalization with overlap
     ethr =  8.98E-10,  avg # of iterations =  5.0

     total cpu time spent up to now is    13483.3 secs

     total energy              =  -16565.86126031 Ry
     estimated scf accuracy    <       0.00000094 Ry

     iteration # 10     ecut=    48.00 Ry     beta= 0.40
     Davidson diagonalization with overlap
     ethr =  2.66E-10,  avg # of iterations =  2.5

     total cpu time spent up to now is    14478.5 secs

     total energy              =  -16565.86126037 Ry
     estimated scf accuracy    <       0.00000026 Ry

     iteration # 11     ecut=    48.00 Ry     beta= 0.40
     Davidson diagonalization with overlap
     ethr =  7.40E-11,  avg # of iterations =  5.2

     total cpu time spent up to now is    15702.1 secs

     total energy              =  -16565.86126045 Ry
     estimated scf accuracy    <       0.00000003 Ry

     iteration # 12     ecut=    48.00 Ry     beta= 0.40
     Davidson diagonalization with overlap
     ethr =  9.23E-12,  avg # of iterations =  4.8

     total cpu time spent up to now is    16727.1 secs

     total energy              =  -16565.86126046 Ry
     estimated scf accuracy    <       0.00000001 Ry

     iteration # 13     ecut=    48.00 Ry     beta= 0.40
     Davidson diagonalization with overlap
     ethr =  3.02E-12,  avg # of iterations =  5.0

     total cpu time spent up to now is    17951.7 secs

     End of self-consistent calculation

          k = 0.0000 0.0000 0.0000 ( 78949 PWs)   bands (ev):

   -18.6200 -18.6198 -18.6198 -18.6198 -18.6195 -18.6195 -18.6195 -18.6194
   -13.9044 -13.9044 -13.9043 -13.9043 -13.9043 -13.8988 -13.8988 -13.8988
   -13.8932 -13.8932 -13.8932 -13.8874 -13.8874 -13.8873 -13.8873 -13.8873
   -13.8527 -13.8527 -13.8527 -13.8526 -13.8526 -13.8526 -13.8523 -13.8523
   -13.8523 -13.8523 -13.8523 -13.8523 -13.8523 -13.8523 -13.8523 -13.8522
   -13.8522 -13.8522 -13.8520 -13.8520 -13.8520 -13.8519 -13.8519 -13.8519
    -9.3425  -9.1457  -9.1457  -9.1457  -8.9040  -8.9040  -8.9040  -8.8422
    -8.8422  -8.8422  -8.8422  -8.8422  -8.8422  -8.8417  -8.8417  -8.8417
    -8.8366  -8.8366  -8.8366  -8.6154  -8.6154  -8.6133  -8.6133  -8.6133
    -5.6595  -5.4086  -5.4086  -5.4086  -5.3956  -5.3956  -5.3956  -5.3954
    -5.3954  -5.3954  -5.3954  -5.3954  -5.3954  -5.3916  -5.3916  -5.3916
    -5.3916  -5.3916  -5.3916  -5.3884  -5.3884  -5.3884  -5.3874  -5.3874
    -5.3874  -5.1311  -5.1311  -5.1311  -4.6252  -4.6252  -4.6252  -4.1123
    -0.6230  -0.6230  -0.6230  -0.5200  -0.5200  -0.5200  -0.5200  -0.5200
    -0.5200  -0.3839  -0.3839  -0.3839   0.6068   0.6068   0.6068   0.7387
     0.7387   0.7387   0.8905   0.8905   0.8905   1.2091   1.2091   1.2091
     1.2091   1.2091   1.2091   1.3064   1.3064   1.3064   1.3064   1.3064
     1.3064   1.3549   1.3549   1.3549   1.3549   1.3549   1.3549   1.4193
     1.4193   1.4193   1.4300   1.4300   1.4300   1.4376   1.4376   1.5487
     1.5487   1.5487   1.5744   1.5744   1.5744   1.5744   1.5744   1.5744
     1.6631   1.6631   1.6631   1.8948   1.8948   1.8948   2.0486   2.0486
     2.0486   2.0608   2.0608   2.0608   2.3306   2.3306   2.3306   2.7670
     4.2012   4.2012   4.2012   4.6286   4.6286   4.6286   4.6286   4.6286
     4.6286   4.9603   4.9603   4.9603   5.8991   6.7503   6.9737   6.9737
     7.3220   7.3220   7.3220   7.3821   7.3821   7.3821   7.5513   7.5513
     7.5513   7.6016   7.6016   7.6016   7.7691   7.7691   7.7691   7.8685
     7.8685   7.8687   7.9113

     occupation numbers 
     1.0000   1.0000   1.0000   1.0000   1.0000   1.0000   1.0000   1.0000
     1.0000   1.0000   1.0000   1.0000   1.0000   1.0000   1.0000   1.0000
     1.0000   1.0000   1.0000   1.0000   1.0000   1.0000   1.0000   1.0000
     1.0000   1.0000   1.0000   1.0000   1.0000   1.0000   1.0000   1.0000
     1.0000   1.0000   1.0000   1.0000   1.0000   1.0000   1.0000   1.0000
     1.0000   1.0000   1.0000   1.0000   1.0000   1.0000   1.0000   1.0000
     1.0000   1.0000   1.0000   1.0000   1.0000   1.0000   1.0000   1.0000
     1.0000   1.0000   1.0000   1.0000   1.0000   1.0000   1.0000   1.0000
     1.0000   1.0000   1.0000   1.0000   1.0000   1.0000   1.0000   1.0000
     1.0000   1.0000   1.0000   1.0000   1.0000   1.0000   1.0000   1.0000
     1.0000   1.0000   1.0000   1.0000   1.0000   1.0000   1.0000   1.0000
     1.0000   1.0000   1.0000   1.0000   1.0000   1.0000   1.0000   1.0000
     1.0000   1.0000   1.0000   1.0000   1.0000   1.0000   1.0000   1.0000
     1.0000   1.0000   1.0000   1.0000   1.0000   1.0000   1.0000   1.0000
     1.0000   1.0000   1.0000   1.0000   1.0000   1.0000   1.0000   1.0000
     1.0000   1.0000   1.0000   1.0000   1.0000   1.0000   1.0000   1.0000
     1.0000   1.0000   1.0000   1.0000   1.0000   1.0000   1.0000   1.0000
     1.0000   1.0000   1.0000   1.0000   1.0000   1.0000   1.0000   1.0000
     1.0000   1.0000   1.0000   1.0000   1.0000   1.0000   1.0000   1.0000
     1.0000   1.0000   1.0000   1.0000   1.0000   1.0000   1.0000   1.0000
     1.0000   1.0000   1.0000   1.0000   1.0000   1.0000   1.0014   1.0014
     1.0014   1.0018   1.0018   1.0018   1.0763   1.0763   1.0763   0.1104
     0.0000   0.0000   0.0000   0.0000   0.0000   0.0000   0.0000   0.0000
     0.0000   0.0000   0.0000   0.0000   0.0000   0.0000   0.0000   0.0000
     0.0000   0.0000   0.0000   0.0000   0.0000   0.0000   0.0000   0.0000
     0.0000   0.0000   0.0000   0.0000   0.0000   0.0000   0.0000   0.0000
     0.0000   0.0000   0.0000

          k = 0.0000 0.0000 0.3333 ( 78821 PWs)   bands (ev):

   -18.6199 -18.6198 -18.6197 -18.6197 -18.6196 -18.6196 -18.6195 -18.6194
   -13.9044 -13.9043 -13.9024 -13.9024 -13.9016 -13.8997 -13.8997 -13.8960
   -13.8960 -13.8923 -13.8923 -13.8902 -13.8894 -13.8894 -13.8874 -13.8873
   -13.8527 -13.8526 -13.8526 -13.8526 -13.8525 -13.8525 -13.8524 -13.8524
   -13.8523 -13.8523 -13.8523 -13.8523 -13.8523 -13.8522 -13.8522 -13.8522
   -13.8522 -13.8522 -13.8521 -13.8521 -13.8520 -13.8520 -13.8520 -13.8519
    -9.3070  -9.2152  -9.1102  -9.1102  -9.0127  -9.0127  -8.8881  -8.8544
    -8.8421  -8.8421  -8.8418  -8.8418  -8.8408  -8.8408  -8.8380  -8.8380
    -8.7646  -8.7366  -8.7366  -8.6580  -8.6454  -8.6454  -8.6149  -8.6138
    -5.5399  -5.4053  -5.4053  -5.4036  -5.3987  -5.3987  -5.3946  -5.3946
    -5.3945  -5.3945  -5.3944  -5.3944  -5.3935  -5.3930  -5.3926  -5.3926
    -5.3926  -5.3926  -5.3908  -5.3908  -5.3901  -5.3901  -5.3892  -5.3892
    -5.3888  -5.2777  -5.0201  -5.0201  -4.7703  -4.7703  -4.5188  -4.2667
    -0.5989  -0.5989  -0.5475  -0.5475  -0.4888  -0.4888  -0.4211  -0.4211
    -0.2307  -0.1330  -0.1330   0.0066   0.5593   0.6389   0.6694   0.6694
     0.7049   0.7135   0.7135   0.7992   0.7992   0.8131   0.8131   0.8996
     0.9755   0.9755   1.2019   1.2019   1.2214   1.2214   1.3184   1.3184
     1.3426   1.3426   1.3755   1.3755   1.4106   1.4106   1.4319   1.4357
     1.4503   1.5012   1.5012   1.5092   1.5092   1.5102   1.5102   1.5150
     1.5535   1.5535   1.5896   1.5896   1.6014   1.6014   1.6243   1.6310
     1.6310   1.6564   1.6752   1.6752   1.9180   1.9180   1.9292   1.9292
     1.9378   1.9378   2.0516   2.0577   2.0771   2.0771   2.3565   2.4806
     4.3205   4.3205   4.5327   4.5327   4.7211   4.7211   4.8876   4.8876
     5.2134   5.5307   5.5307   5.8175   6.1514   6.7131   6.7864   6.9435
     7.0550   7.0550   7.1125   7.1796   7.3949   7.4481   7.4481   7.4504
     7.4529   7.5605   7.5605   7.5925   7.5925   7.6735   7.7349   7.7351
     7.7749   7.7749   7.8636

     occupation numbers 
     1.0000   1.0000   1.0000   1.0000   1.0000   1.0000   1.0000   1.0000
     1.0000   1.0000   1.0000   1.0000   1.0000   1.0000   1.0000   1.0000
     1.0000   1.0000   1.0000   1.0000   1.0000   1.0000   1.0000   1.0000
     1.0000   1.0000   1.0000   1.0000   1.0000   1.0000   1.0000   1.0000
     1.0000   1.0000   1.0000   1.0000   1.0000   1.0000   1.0000   1.0000
     1.0000   1.0000   1.0000   1.0000   1.0000   1.0000   1.0000   1.0000
     1.0000   1.0000   1.0000   1.0000   1.0000   1.0000   1.0000   1.0000
     1.0000   1.0000   1.0000   1.0000   1.0000   1.0000   1.0000   1.0000
     1.0000   1.0000   1.0000   1.0000   1.0000   1.0000   1.0000   1.0000
     1.0000   1.0000   1.0000   1.0000   1.0000   1.0000   1.0000   1.0000
     1.0000   1.0000   1.0000   1.0000   1.0000   1.0000   1.0000   1.0000
     1.0000   1.0000   1.0000   1.0000   1.0000   1.0000   1.0000   1.0000
     1.0000   1.0000   1.0000   1.0000   1.0000   1.0000   1.0000   1.0000
     1.0000   1.0000   1.0000   1.0000   1.0000   1.0000   1.0000   1.0000
     1.0000   1.0000   1.0000   1.0000   1.0000   1.0000   1.0000   1.0000
     1.0000   1.0000   1.0000   1.0000   1.0000   1.0000   1.0000   1.0000
     1.0000   1.0000   1.0000   1.0000   1.0000   1.0000   1.0000   1.0000
     1.0000   1.0000   1.0000   1.0000   1.0000   1.0000   1.0000   1.0000
     1.0000   1.0000   1.0000   1.0000   1.0000   1.0000   1.0000   1.0000
     1.0000   1.0000   1.0000   1.0000   1.0000   1.0000   1.0000   1.0000
     1.0000   1.0000   1.0000   1.0000   1.0000   1.0000   1.0001   1.0001
     1.0001   1.0001   1.0015   1.0017   1.0026   1.0026   1.0825   0.9719
     0.0000   0.0000   0.0000   0.0000   0.0000   0.0000   0.0000   0.0000
     0.0000   0.0000   0.0000   0.0000   0.0000   0.0000   0.0000   0.0000
     0.0000   0.0000   0.0000   0.0000   0.0000   0.0000   0.0000   0.0000
     0.0000   0.0000   0.0000   0.0000   0.0000   0.0000   0.0000   0.0000
     0.0000   0.0000   0.0000

          k = 0.0000 0.3333 0.3333 ( 78766 PWs)   bands (ev):

   -18.6199 -18.6198 -18.6198 -18.6197 -18.6197 -18.6195 -18.6195 -18.6195
   -13.9030 -13.9025 -13.9025 -13.9002 -13.9002 -13.9001 -13.8969 -13.8968
   -13.8951 -13.8950 -13.8917 -13.8917 -13.8916 -13.8893 -13.8893 -13.8888
   -13.8526 -13.8526 -13.8525 -13.8525 -13.8525 -13.8524 -13.8524 -13.8524
   -13.8523 -13.8523 -13.8523 -13.8523 -13.8523 -13.8522 -13.8522 -13.8522
   -13.8522 -13.8522 -13.8521 -13.8521 -13.8521 -13.8521 -13.8520 -13.8520
    -9.2719  -9.1807  -9.1807  -9.0896  -9.0773  -8.9880  -8.9880  -8.9241
    -8.8416  -8.8411  -8.8411  -8.8391  -8.7880  -8.7831  -8.7669  -8.7669
    -8.7475  -8.7475  -8.7141  -8.6747  -8.6715  -8.6451  -8.6451  -8.6374
    -5.4306  -5.4043  -5.3985  -5.3985  -5.3983  -5.3981  -5.3981  -5.3958
    -5.3953  -5.3952  -5.3951  -5.3939  -5.3939  -5.3936  -5.3931  -5.3919
    -5.3918  -5.3918  -5.3915  -5.3915  -5.3907  -5.3900  -5.3897  -5.3894
    -5.3894  -5.1646  -5.1646  -4.9142  -4.9120  -4.6644  -4.6644  -4.4163
    -0.5732  -0.5183  -0.5183  -0.4554  -0.2844  -0.1686  -0.1686  -0.1634
    -0.1320  -0.0405  -0.0389  -0.0389   0.5628   0.5765   0.5765   0.6333
     0.6917   0.6917   0.7230   0.7289   0.7289   0.7501   0.7714   0.7871
     0.8181   0.9790   0.9790   1.0451   1.0477   1.1466   1.1838   1.1838
     1.2198   1.2198   1.3294   1.3468   1.3628   1.3975   1.3975   1.4090
     1.4837   1.5226   1.5272   1.5272   1.5298   1.5494   1.5494   1.5637
     1.5819   1.5856   1.5933   1.5933   1.6232   1.6232   1.6697   1.6895
     1.6895   1.7084   1.7361   1.7538   1.7538   1.7887   1.8634   1.8895
     1.8956   1.9436   1.9436   1.9456   1.9781   2.0853   2.0853   2.1767
     4.4311   4.6306   4.6306   4.8081   5.2443   5.3321   5.4480   5.4480
     5.5703   5.6320   5.7467   5.7467   6.3626   6.7711   6.7711   6.8924
     6.8924   6.9100   6.9608   7.0781   7.1647   7.1647   7.1959   7.2780
     7.2924   7.3399   7.3484   7.4158   7.4389   7.4389   7.5695   7.5843
     7.5843   7.6228   7.6950

     occupation numbers 
     1.0000   1.0000   1.0000   1.0000   1.0000   1.0000   1.0000   1.0000
     1.0000   1.0000   1.0000   1.0000   1.0000   1.0000   1.0000   1.0000
     1.0000   1.0000   1.0000   1.0000   1.0000   1.0000   1.0000   1.0000
     1.0000   1.0000   1.0000   1.0000   1.0000   1.0000   1.0000   1.0000
     1.0000   1.0000   1.0000   1.0000   1.0000   1.0000   1.0000   1.0000
     1.0000   1.0000   1.0000   1.0000   1.0000   1.0000   1.0000   1.0000
     1.0000   1.0000   1.0000   1.0000   1.0000   1.0000   1.0000   1.0000
     1.0000   1.0000   1.0000   1.0000   1.0000   1.0000   1.0000   1.0000
     1.0000   1.0000   1.0000   1.0000   1.0000   1.0000   1.0000   1.0000
     1.0000   1.0000   1.0000   1.0000   1.0000   1.0000   1.0000   1.0000
     1.0000   1.0000   1.0000   1.0000   1.0000   1.0000   1.0000   1.0000
     1.0000   1.0000   1.0000   1.0000   1.0000   1.0000   1.0000   1.0000
     1.0000   1.0000   1.0000   1.0000   1.0000   1.0000   1.0000   1.0000
     1.0000   1.0000   1.0000   1.0000   1.0000   1.0000   1.0000   1.0000
     1.0000   1.0000   1.0000   1.0000   1.0000   1.0000   1.0000   1.0000
     1.0000   1.0000   1.0000   1.0000   1.0000   1.0000   1.0000   1.0000
     1.0000   1.0000   1.0000   1.0000   1.0000   1.0000   1.0000   1.0000
     1.0000   1.0000   1.0000   1.0000   1.0000   1.0000   1.0000   1.0000
     1.0000   1.0000   1.0000   1.0000   1.0000   1.0000   1.0000   1.0000
     1.0000   1.0000   1.0000   1.0000   1.0000   1.0000   1.0000   1.0000
     1.0000   1.0000   1.0000   1.0000   1.0000   1.0000   1.0000   1.0000
     1.0000   1.0001   1.0001   1.0001   1.0003   1.0031   1.0031   1.0157
     0.0000   0.0000   0.0000   0.0000   0.0000   0.0000   0.0000   0.0000
     0.0000   0.0000   0.0000   0.0000   0.0000   0.0000   0.0000   0.0000
     0.0000   0.0000   0.0000   0.0000   0.0000   0.0000   0.0000   0.0000
     0.0000   0.0000   0.0000   0.0000   0.0000   0.0000   0.0000   0.0000
     0.0000   0.0000   0.0000

          k = 0.3333 0.3333 0.3333 ( 78784 PWs)   bands (ev):

   -18.6198 -18.6197 -18.6197 -18.6197 -18.6196 -18.6196 -18.6196 -18.6195
   -13.9002 -13.9002 -13.9001 -13.9001 -13.9001 -13.8974 -13.8974 -13.8973
   -13.8945 -13.8945 -13.8945 -13.8917 -13.8917 -13.8916 -13.8916 -13.8916
   -13.8525 -13.8525 -13.8525 -13.8524 -13.8524 -13.8524 -13.8523 -13.8523
   -13.8523 -13.8523 -13.8523 -13.8523 -13.8523 -13.8523 -13.8523 -13.8522
   -13.8522 -13.8522 -13.8521 -13.8521 -13.8521 -13.8521 -13.8521 -13.8521
    -9.2376  -9.1481  -9.1481  -9.1481  -9.0619  -9.0619  -9.0619  -8.9892
    -8.7867  -8.7867  -8.7867  -8.7843  -8.7843  -8.7682  -8.7682  -8.7682
    -8.7319  -8.7319  -8.7319  -8.6739  -8.6739  -8.6723  -8.6723  -8.6723
    -5.4020  -5.4020  -5.3976  -5.3974  -5.3974  -5.3974  -5.3974  -5.3974
    -5.3974  -5.3957  -5.3957  -5.3957  -5.3953  -5.3953  -5.3946  -5.3946
    -5.3946  -5.3899  -5.3899  -5.3899  -5.3882  -5.3880  -5.3880  -5.3880
    -5.3061  -5.0556  -5.0556  -5.0556  -4.8082  -4.8082  -4.8082  -4.5624
    -0.2569  -0.2569  -0.1968  -0.1968  -0.1968  -0.0837  -0.0837  -0.0837
    -0.0805  -0.0805  -0.0805  -0.0384   0.5889   0.5889   0.5889   0.5926
     0.5926   0.5926   0.6475   0.6475   0.6475   0.6619   0.6619   0.6866
     0.9538   0.9538   0.9948   0.9948   0.9948   1.1263   1.1263   1.1263
     1.1687   1.1687   1.1687   1.2650   1.2650   1.2650   1.3135   1.3135
     1.4222   1.4392   1.4392   1.4392   1.4833   1.4833   1.4833   1.6644
     1.6765   1.6765   1.6765   1.7055   1.7055   1.7126   1.7126   1.7126
     1.7297   1.7297   1.7297   1.7350   1.7652   1.7652   1.7652   1.8203
     1.8203   1.8203   1.8778   1.8778   1.8965   1.8965   1.8965   1.9191
     5.3239   5.3239   5.4394   5.4873   5.4873   5.4873   5.5526   5.5526
     5.5526   5.6707   5.6707   5.6707   6.5110   6.8096   6.8096   6.8096
     6.8434   6.8434   6.8434   7.0058   7.0059   7.0059   7.1141   7.1401
     7.1401   7.1793   7.1793   7.1793   7.1837   7.2790   7.2790   7.2790
     7.3989   7.3989   7.6473

     occupation numbers 
     1.0000   1.0000   1.0000   1.0000   1.0000   1.0000   1.0000   1.0000
     1.0000   1.0000   1.0000   1.0000   1.0000   1.0000   1.0000   1.0000
     1.0000   1.0000   1.0000   1.0000   1.0000   1.0000   1.0000   1.0000
     1.0000   1.0000   1.0000   1.0000   1.0000   1.0000   1.0000   1.0000
     1.0000   1.0000   1.0000   1.0000   1.0000   1.0000   1.0000   1.0000
     1.0000   1.0000   1.0000   1.0000   1.0000   1.0000   1.0000   1.0000
     1.0000   1.0000   1.0000   1.0000   1.0000   1.0000   1.0000   1.0000
     1.0000   1.0000   1.0000   1.0000   1.0000   1.0000   1.0000   1.0000
     1.0000   1.0000   1.0000   1.0000   1.0000   1.0000   1.0000   1.0000
     1.0000   1.0000   1.0000   1.0000   1.0000   1.0000   1.0000   1.0000
     1.0000   1.0000   1.0000   1.0000   1.0000   1.0000   1.0000   1.0000
     1.0000   1.0000   1.0000   1.0000   1.0000   1.0000   1.0000   1.0000
     1.0000   1.0000   1.0000   1.0000   1.0000   1.0000   1.0000   1.0000
     1.0000   1.0000   1.0000   1.0000   1.0000   1.0000   1.0000   1.0000
     1.0000   1.0000   1.0000   1.0000   1.0000   1.0000   1.0000   1.0000
     1.0000   1.0000   1.0000   1.0000   1.0000   1.0000   1.0000   1.0000
     1.0000   1.0000   1.0000   1.0000   1.0000   1.0000   1.0000   1.0000
     1.0000   1.0000   1.0000   1.0000   1.0000   1.0000   1.0000   1.0000
     1.0000   1.0000   1.0000   1.0000   1.0000   1.0000   1.0000   1.0000
     1.0000   1.0000   1.0000   1.0000   1.0000   1.0000   1.0000   1.0000
     1.0000   1.0000   1.0000   1.0000   1.0000   1.0000   1.0000   1.0000
     1.0000   1.0000   1.0000   1.0000   1.0000   1.0000   1.0000   1.0001
     0.0000   0.0000   0.0000   0.0000   0.0000   0.0000   0.0000   0.0000
     0.0000   0.0000   0.0000   0.0000   0.0000   0.0000   0.0000   0.0000
     0.0000   0.0000   0.0000   0.0000   0.0000   0.0000   0.0000   0.0000
     0.0000   0.0000   0.0000   0.0000   0.0000   0.0000   0.0000   0.0000
     0.0000   0.0000   0.0000

     the Fermi energy is     2.6510 ev

!    total energy              =  -16565.86126045 Ry
     estimated scf accuracy    <          5.0E-09 Ry
     smearing contrib. (-TS)   =       0.00293862 Ry
     internal energy E=F+TS    =  -16565.86419907 Ry

     The total energy is F=E-TS. E is the sum of the following terms:
     one-electron contribution =    -767.67560832 Ry
     hartree contribution      =     549.51365526 Ry
     xc contribution           =   -1598.31591644 Ry
     ewald contribution        =   -1229.22289246 Ry
     one-center paw contrib.   =  -13520.16343712 Ry
      -> PAW hartree energy AE =    1016.95495052 Ry
      -> PAW hartree energy PS =   -1016.39505097 Ry
      -> PAW xc energy AE      =  -14841.73243488 Ry
      -> PAW xc energy PS      =    1321.00909822 Ry
      -> total E_H with PAW    =     550.07355481 Ry
      -> total E_XC with PAW   =  -15119.03925310 Ry

     convergence has been achieved in  13 iterations

     Forces acting on atoms (cartesian axes, Ry/au):

     atom    1 type  1   force =     0.00000026    0.00000026    0.00000026
     atom    2 type  1   force =     0.00000026    0.00000026   -0.00000026
     atom    3 type  1   force =     0.00000026   -0.00000026    0.00000026
     atom    4 type  1   force =     0.00000026   -0.00000026   -0.00000026
     atom    5 type  1   force =    -0.00000026    0.00000026    0.00000026
     atom    6 type  1   force =    -0.00000026    0.00000026   -0.00000026
     atom    7 type  1   force =    -0.00000026   -0.00000026    0.00000026
     atom    8 type  1   force =    -0.00000026   -0.00000026   -0.00000026
     atom    9 type  3   force =     0.00000000    0.00000000    0.00000000
     atom   10 type  3   force =     0.00000000    0.00000000    0.00000000
     atom   11 type  3   force =     0.00000000    0.00000000    0.00000000
     atom   12 type  3   force =     0.00000000    0.00000000    0.00000000
     atom   13 type  3   force =     0.00000000    0.00000000    0.00000000
     atom   14 type  3   force =     0.00000000    0.00000000    0.00000000
     atom   15 type  3   force =     0.00000000    0.00000000    0.00000000
     atom   16 type  3   force =     0.00000000    0.00000000    0.00000000
     atom   17 type  2   force =     0.00000000    0.00000000   -0.00000468
     atom   18 type  2   force =     0.00000000    0.00000000    0.00000468
     atom   19 type  2   force =     0.00000000   -0.00000000   -0.00000475
     atom   20 type  2   force =     0.00000000    0.00000000    0.00000475
     atom   21 type  2   force =     0.00000000   -0.00000000   -0.00000475
     atom   22 type  2   force =     0.00000000   -0.00000000    0.00000475
     atom   23 type  2   force =     0.00000000    0.00000000   -0.00000431
     atom   24 type  2   force =     0.00000000    0.00000000    0.00000431
     atom   25 type  2   force =     0.00000000   -0.00000468    0.00000000
     atom   26 type  2   force =     0.00000000   -0.00000475    0.00000000
     atom   27 type  2   force =     0.00000000    0.00000468    0.00000000
     atom   28 type  2   force =     0.00000000    0.00000475    0.00000000
     atom   29 type  2   force =     0.00000000   -0.00000475    0.00000000
     atom   30 type  2   force =    -0.00000000   -0.00000431   -0.00000000
     atom   31 type  2   force =     0.00000000    0.00000475    0.00000000
     atom   32 type  2   force =     0.00000000    0.00000431    0.00000000
     atom   33 type  2   force =    -0.00000468   -0.00000000    0.00000000
     atom   34 type  2   force =    -0.00000475    0.00000000   -0.00000000
     atom   35 type  2   force =    -0.00000475    0.00000000    0.00000000
     atom   36 type  2   force =    -0.00000431    0.00000000    0.00000000
     atom   37 type  2   force =     0.00000468   -0.00000000    0.00000000
     atom   38 type  2   force =     0.00000475    0.00000000    0.00000000
     atom   39 type  2   force =     0.00000475   -0.00000000    0.00000000
     atom   40 type  2   force =     0.00000431    0.00000000    0.00000000
     The non-local contrib.  to forces
     atom    1 type  1   force =     0.00000021    0.00000021    0.00000021
     atom    2 type  1   force =     0.00000021    0.00000021   -0.00000021
     atom    3 type  1   force =     0.00000021   -0.00000021    0.00000021
     atom    4 type  1   force =     0.00000021   -0.00000021   -0.00000021
     atom    5 type  1   force =    -0.00000021    0.00000021    0.00000021
     atom    6 type  1   force =    -0.00000021    0.00000021   -0.00000021
     atom    7 type  1   force =    -0.00000021   -0.00000021    0.00000021
     atom    8 type  1   force =    -0.00000021   -0.00000021   -0.00000021
     atom    9 type  3   force =     0.00000000    0.00000000    0.00000000
     atom   10 type  3   force =     0.00000000    0.00000000    0.00000000
     atom   11 type  3   force =     0.00000000    0.00000000    0.00000000
     atom   12 type  3   force =     0.00000000    0.00000000    0.00000000
     atom   13 type  3   force =     0.00000000    0.00000000    0.00000000
     atom   14 type  3   force =     0.00000000    0.00000000    0.00000000
     atom   15 type  3   force =     0.00000000    0.00000000    0.00000000
     atom   16 type  3   force =     0.00000000    0.00000000    0.00000000
     atom   17 type  2   force =     0.00000000    0.00000000    0.00000099
     atom   18 type  2   force =     0.00000000    0.00000000   -0.00000099
     atom   19 type  2   force =     0.00000000    0.00000000    0.00000096
     atom   20 type  2   force =     0.00000000    0.00000000   -0.00000096
     atom   21 type  2   force =     0.00000000    0.00000000    0.00000096
     atom   22 type  2   force =     0.00000000    0.00000000   -0.00000096
     atom   23 type  2   force =     0.00000000    0.00000000    0.00000110
     atom   24 type  2   force =     0.00000000    0.00000000   -0.00000110
     atom   25 type  2   force =    -0.00000000    0.00000099    0.00000000
     atom   26 type  2   force =    -0.00000000    0.00000096    0.00000000
     atom   27 type  2   force =     0.00000000   -0.00000099    0.00000000
     atom   28 type  2   force =     0.00000000   -0.00000096    0.00000000
     atom   29 type  2   force =     0.00000000    0.00000096    0.00000000
     atom   30 type  2   force =     0.00000000    0.00000110    0.00000000
     atom   31 type  2   force =     0.00000000   -0.00000096    0.00000000
     atom   32 type  2   force =     0.00000000   -0.00000110    0.00000000
     atom   33 type  2   force =     0.00000099    0.00000000    0.00000000
     atom   34 type  2   force =     0.00000096    0.00000000    0.00000000
     atom   35 type  2   force =     0.00000096    0.00000000    0.00000000
     atom   36 type  2   force =     0.00000110    0.00000000    0.00000000
     atom   37 type  2   force =    -0.00000099    0.00000000    0.00000000
     atom   38 type  2   force =    -0.00000096    0.00000000    0.00000000
     atom   39 type  2   force =    -0.00000096    0.00000000    0.00000000
     atom   40 type  2   force =    -0.00000110    0.00000000    0.00000000
     The ionic contribution  to forces
     atom    1 type  1   force =    -0.00004935   -0.00004935   -0.00004935
     atom    2 type  1   force =    -0.00004935   -0.00004935    0.00004935
     atom    3 type  1   force =    -0.00004935    0.00004935   -0.00004935
     atom    4 type  1   force =    -0.00004935    0.00004935    0.00004935
     atom    5 type  1   force =     0.00004935   -0.00004935   -0.00004935
     atom    6 type  1   force =     0.00004935   -0.00004935    0.00004935
     atom    7 type  1   force =     0.00004935    0.00004935   -0.00004935
     atom    8 type  1   force =     0.00004935    0.00004935    0.00004935
     atom    9 type  3   force =    -0.00000000   -0.00000000   -0.00000000
     atom   10 type  3   force =     0.00000000    0.00000000    0.00000000
     atom   11 type  3   force =     0.00000000    0.00000000    0.00000000
     atom   12 type  3   force =    -0.00000000    0.00000000    0.00000000
     atom   13 type  3   force =     0.00000000    0.00000000    0.00000000
     atom   14 type  3   force =     0.00000000   -0.00000000    0.00000000
     atom   15 type  3   force =     0.00000000    0.00000000   -0.00000000
     atom   16 type  3   force =     0.00000000    0.00000000    0.00000000
     atom   17 type  2   force =    -0.00000000   -0.00000000   -0.00020855
     atom   18 type  2   force =    -0.00000000   -0.00000000    0.00020855
     atom   19 type  2   force =    -0.00000000    0.00000000   -0.00021075
     atom   20 type  2   force =    -0.00000000    0.00000000    0.00021075
     atom   21 type  2   force =     0.00000000   -0.00000000   -0.00021075
     atom   22 type  2   force =     0.00000000   -0.00000000    0.00021075
     atom   23 type  2   force =     0.00000000    0.00000000   -0.00021115
     atom   24 type  2   force =    -0.00000000   -0.00000000    0.00021115
     atom   25 type  2   force =    -0.00000000   -0.00020855   -0.00000000
     atom   26 type  2   force =    -0.00000000   -0.00021075    0.00000000
     atom   27 type  2   force =    -0.00000000    0.00020855   -0.00000000
     atom   28 type  2   force =    -0.00000000    0.00021075    0.00000000
     atom   29 type  2   force =     0.00000000   -0.00021075   -0.00000000
     atom   30 type  2   force =     0.00000000   -0.00021115    0.00000000
     atom   31 type  2   force =     0.00000000    0.00021075   -0.00000000
     atom   32 type  2   force =    -0.00000000    0.00021115   -0.00000000
     atom   33 type  2   force =    -0.00020855   -0.00000000   -0.00000000
     atom   34 type  2   force =    -0.00021075   -0.00000000    0.00000000
     atom   35 type  2   force =    -0.00021075    0.00000000   -0.00000000
     atom   36 type  2   force =    -0.00021115    0.00000000    0.00000000
     atom   37 type  2   force =     0.00020855   -0.00000000   -0.00000000
     atom   38 type  2   force =     0.00021075   -0.00000000    0.00000000
     atom   39 type  2   force =     0.00021075    0.00000000   -0.00000000
     atom   40 type  2   force =     0.00021115   -0.00000000   -0.00000000
     The local contribution  to forces
     atom    1 type  1   force =     0.00004960    0.00004960    0.00004960
     atom    2 type  1   force =     0.00004960    0.00004960   -0.00004960
     atom    3 type  1   force =     0.00004960   -0.00004960    0.00004960
     atom    4 type  1   force =     0.00004960   -0.00004960   -0.00004960
     atom    5 type  1   force =    -0.00004960    0.00004960    0.00004960
     atom    6 type  1   force =    -0.00004960    0.00004960   -0.00004960
     atom    7 type  1   force =    -0.00004960   -0.00004960    0.00004960
     atom    8 type  1   force =    -0.00004960   -0.00004960   -0.00004960
     atom    9 type  3   force =    -0.00000000    0.00000000    0.00000000
     atom   10 type  3   force =    -0.00000000    0.00000000    0.00000000
     atom   11 type  3   force =    -0.00000000    0.00000000    0.00000000
     atom   12 type  3   force =    -0.00000000    0.00000000    0.00000000
     atom   13 type  3   force =     0.00000000    0.00000000    0.00000000
     atom   14 type  3   force =     0.00000000    0.00000000    0.00000000
     atom   15 type  3   force =     0.00000000    0.00000000    0.00000000
     atom   16 type  3   force =     0.00000000    0.00000000    0.00000000
     atom   17 type  2   force =    -0.00000000   -0.00000000    0.00020218
     atom   18 type  2   force =    -0.00000000   -0.00000000   -0.00020218
     atom   19 type  2   force =    -0.00000000   -0.00000000    0.00020442
     atom   20 type  2   force =    -0.00000000    0.00000000   -0.00020442
     atom   21 type  2   force =     0.00000000   -0.00000000    0.00020442
     atom   22 type  2   force =     0.00000000   -0.00000000   -0.00020442
     atom   23 type  2   force =     0.00000000    0.00000000    0.00020619
     atom   24 type  2   force =    -0.00000000   -0.00000000   -0.00020619
     atom   25 type  2   force =    -0.00000000    0.00020218   -0.00000000
     atom   26 type  2   force =    -0.00000000    0.00020442    0.00000000
     atom   27 type  2   force =    -0.00000000   -0.00020218   -0.00000000
     atom   28 type  2   force =    -0.00000000   -0.00020442    0.00000000
     atom   29 type  2   force =     0.00000000    0.00020442   -0.00000000
     atom   30 type  2   force =     0.00000000    0.00020619    0.00000000
     atom   31 type  2   force =     0.00000000   -0.00020442   -0.00000000
     atom   32 type  2   force =     0.00000000   -0.00020619    0.00000000
     atom   33 type  2   force =     0.00020218   -0.00000000   -0.00000000
     atom   34 type  2   force =     0.00020442   -0.00000000    0.00000000
     atom   35 type  2   force =     0.00020442    0.00000000   -0.00000000
     atom   36 type  2   force =     0.00020619    0.00000000    0.00000000
     atom   37 type  2   force =    -0.00020218   -0.00000000   -0.00000000
     atom   38 type  2   force =    -0.00020442   -0.00000000    0.00000000
     atom   39 type  2   force =    -0.00020442    0.00000000   -0.00000000
     atom   40 type  2   force =    -0.00020619    0.00000000    0.00000000
     The core correction contribution to forces
     atom    1 type  1   force =     0.00000000    0.00000000    0.00000000
     atom    2 type  1   force =     0.00000000    0.00000000   -0.00000000
     atom    3 type  1   force =     0.00000000   -0.00000000    0.00000000
     atom    4 type  1   force =     0.00000000   -0.00000000   -0.00000000
     atom    5 type  1   force =    -0.00000000    0.00000000    0.00000000
     atom    6 type  1   force =    -0.00000000    0.00000000   -0.00000000
     atom    7 type  1   force =    -0.00000000   -0.00000000    0.00000000
     atom    8 type  1   force =    -0.00000000   -0.00000000   -0.00000000
     atom    9 type  3   force =     0.00000000    0.00000000    0.00000000
     atom   10 type  3   force =    -0.00000000   -0.00000000    0.00000000
     atom   11 type  3   force =    -0.00000000    0.00000000   -0.00000000
     atom   12 type  3   force =     0.00000000   -0.00000000   -0.00000000
     atom   13 type  3   force =     0.00000000   -0.00000000   -0.00000000
     atom   14 type  3   force =    -0.00000000    0.00000000   -0.00000000
     atom   15 type  3   force =    -0.00000000   -0.00000000    0.00000000
     atom   16 type  3   force =     0.00000000    0.00000000    0.00000000
     atom   17 type  2   force =     0.00000000    0.00000000    0.00000073
     atom   18 type  2   force =     0.00000000    0.00000000   -0.00000073
     atom   19 type  2   force =     0.00000000   -0.00000000    0.00000061
     atom   20 type  2   force =     0.00000000   -0.00000000   -0.00000061
     atom   21 type  2   force =    -0.00000000    0.00000000    0.00000061
     atom   22 type  2   force =    -0.00000000    0.00000000   -0.00000061
     atom   23 type  2   force =    -0.00000000   -0.00000000    0.00000055
     atom   24 type  2   force =     0.00000000    0.00000000   -0.00000055
     atom   25 type  2   force =     0.00000000    0.00000073    0.00000000
     atom   26 type  2   force =     0.00000000    0.00000061   -0.00000000
     atom   27 type  2   force =     0.00000000   -0.00000073    0.00000000
     atom   28 type  2   force =     0.00000000   -0.00000061   -0.00000000
     atom   29 type  2   force =    -0.00000000    0.00000061    0.00000000
     atom   30 type  2   force =    -0.00000000    0.00000055   -0.00000000
     atom   31 type  2   force =    -0.00000000   -0.00000061    0.00000000
     atom   32 type  2   force =     0.00000000   -0.00000055    0.00000000
     atom   33 type  2   force =     0.00000073    0.00000000    0.00000000
     atom   34 type  2   force =     0.00000061    0.00000000   -0.00000000
     atom   35 type  2   force =     0.00000061   -0.00000000    0.00000000
     atom   36 type  2   force =     0.00000055   -0.00000000   -0.00000000
     atom   37 type  2   force =    -0.00000073    0.00000000    0.00000000
     atom   38 type  2   force =    -0.00000061    0.00000000   -0.00000000
     atom   39 type  2   force =    -0.00000061   -0.00000000    0.00000000
     atom   40 type  2   force =    -0.00000055    0.00000000    0.00000000
     The Hubbard contrib.    to forces
     atom    1 type  1   force =     0.00000000    0.00000000    0.00000000
     atom    2 type  1   force =     0.00000000    0.00000000    0.00000000
     atom    3 type  1   force =     0.00000000    0.00000000    0.00000000
     atom    4 type  1   force =     0.00000000    0.00000000    0.00000000
     atom    5 type  1   force =     0.00000000    0.00000000    0.00000000
     atom    6 type  1   force =     0.00000000    0.00000000    0.00000000
     atom    7 type  1   force =     0.00000000    0.00000000    0.00000000
     atom    8 type  1   force =     0.00000000    0.00000000    0.00000000
     atom    9 type  3   force =     0.00000000    0.00000000    0.00000000
     atom   10 type  3   force =     0.00000000    0.00000000    0.00000000
     atom   11 type  3   force =     0.00000000    0.00000000    0.00000000
     atom   12 type  3   force =     0.00000000    0.00000000    0.00000000
     atom   13 type  3   force =     0.00000000    0.00000000    0.00000000
     atom   14 type  3   force =     0.00000000    0.00000000    0.00000000
     atom   15 type  3   force =     0.00000000    0.00000000    0.00000000
     atom   16 type  3   force =     0.00000000    0.00000000    0.00000000
     atom   17 type  2   force =     0.00000000    0.00000000    0.00000000
     atom   18 type  2   force =     0.00000000    0.00000000    0.00000000
     atom   19 type  2   force =     0.00000000    0.00000000    0.00000000
     atom   20 type  2   force =     0.00000000    0.00000000    0.00000000
     atom   21 type  2   force =     0.00000000    0.00000000    0.00000000
     atom   22 type  2   force =     0.00000000    0.00000000    0.00000000
     atom   23 type  2   force =     0.00000000    0.00000000    0.00000000
     atom   24 type  2   force =     0.00000000    0.00000000    0.00000000
     atom   25 type  2   force =     0.00000000    0.00000000    0.00000000
     atom   26 type  2   force =     0.00000000    0.00000000    0.00000000
     atom   27 type  2   force =     0.00000000    0.00000000    0.00000000
     atom   28 type  2   force =     0.00000000    0.00000000    0.00000000
     atom   29 type  2   force =     0.00000000    0.00000000    0.00000000
     atom   30 type  2   force =     0.00000000    0.00000000    0.00000000
     atom   31 type  2   force =     0.00000000    0.00000000    0.00000000
     atom   32 type  2   force =     0.00000000    0.00000000    0.00000000
     atom   33 type  2   force =     0.00000000    0.00000000    0.00000000
     atom   34 type  2   force =     0.00000000    0.00000000    0.00000000
     atom   35 type  2   force =     0.00000000    0.00000000    0.00000000
     atom   36 type  2   force =     0.00000000    0.00000000    0.00000000
     atom   37 type  2   force =     0.00000000    0.00000000    0.00000000
     atom   38 type  2   force =     0.00000000    0.00000000    0.00000000
     atom   39 type  2   force =     0.00000000    0.00000000    0.00000000
     atom   40 type  2   force =     0.00000000    0.00000000    0.00000000
     The SCF correction term to forces
     atom    1 type  1   force =    -0.00000021   -0.00000021   -0.00000021
     atom    2 type  1   force =    -0.00000021   -0.00000021    0.00000021
     atom    3 type  1   force =    -0.00000021    0.00000021   -0.00000021
     atom    4 type  1   force =    -0.00000021    0.00000021    0.00000021
     atom    5 type  1   force =     0.00000021   -0.00000021   -0.00000021
     atom    6 type  1   force =     0.00000021   -0.00000021    0.00000021
     atom    7 type  1   force =     0.00000021    0.00000021   -0.00000021
     atom    8 type  1   force =     0.00000021    0.00000021    0.00000021
     atom    9 type  3   force =    -0.00000000   -0.00000000   -0.00000000
     atom   10 type  3   force =     0.00000000   -0.00000000    0.00000000
     atom   11 type  3   force =    -0.00000000   -0.00000000    0.00000000
     atom   12 type  3   force =    -0.00000000   -0.00000000    0.00000000
     atom   13 type  3   force =    -0.00000000   -0.00000000    0.00000000
     atom   14 type  3   force =    -0.00000000   -0.00000000   -0.00000000
     atom   15 type  3   force =    -0.00000000    0.00000000    0.00000000
     atom   16 type  3   force =    -0.00000000    0.00000000   -0.00000000
     atom   17 type  2   force =     0.00000000    0.00000000   -0.00000001
     atom   18 type  2   force =     0.00000000    0.00000000    0.00000001
     atom   19 type  2   force =    -0.00000000    0.00000000    0.00000002
     atom   20 type  2   force =    -0.00000000    0.00000000   -0.00000002
     atom   21 type  2   force =    -0.00000000   -0.00000000    0.00000002
     atom   22 type  2   force =    -0.00000000   -0.00000000   -0.00000002
     atom   23 type  2   force =    -0.00000000    0.00000000   -0.00000100
     atom   24 type  2   force =    -0.00000000    0.00000000    0.00000100
     atom   25 type  2   force =    -0.00000000   -0.00000001   -0.00000000
     atom   26 type  2   force =    -0.00000000    0.00000002    0.00000000
     atom   27 type  2   force =    -0.00000000    0.00000001    0.00000000
     atom   28 type  2   force =    -0.00000000   -0.00000002    0.00000000
     atom   29 type  2   force =    -0.00000000    0.00000002    0.00000000
     atom   30 type  2   force =    -0.00000000   -0.00000100    0.00000000
     atom   31 type  2   force =    -0.00000000   -0.00000002   -0.00000000
     atom   32 type  2   force =    -0.00000000    0.00000100    0.00000000
     atom   33 type  2   force =    -0.00000001   -0.00000000   -0.00000000
     atom   34 type  2   force =     0.00000002   -0.00000000    0.00000000
     atom   35 type  2   force =     0.00000002   -0.00000000    0.00000000
     atom   36 type  2   force =    -0.00000100    0.00000000    0.00000000
     atom   37 type  2   force =     0.00000001   -0.00000000    0.00000000
     atom   38 type  2   force =    -0.00000002   -0.00000000    0.00000000
     atom   39 type  2   force =    -0.00000002    0.00000000   -0.00000000
     atom   40 type  2   force =     0.00000100   -0.00000000    0.00000000

     Total force =     0.000023     Total SCF correction =     0.000003
     SCF correction compared to forces is large: reduce conv_thr to get better values


     Computing stress (Cartesian axis) and pressure

          total   stress  (Ry/bohr**3)                   (kbar)     P=        0.70
   0.00000473   0.00000000   0.00000000            0.70        0.00        0.00
   0.00000000   0.00000473   0.00000000            0.00        0.70        0.00
   0.00000000   0.00000000   0.00000473            0.00        0.00        0.70

     kinetic stress (kbar)   3450.42      0.00      0.00
                                0.00   3450.42      0.00
                                0.00      0.00   3450.42

     local   stress (kbar)   -370.99     -0.00     -0.00
                               -0.00   -370.99      0.00
                               -0.00      0.00   -370.99

     nonloc. stress (kbar)    895.85      0.00      0.00
                                0.00    895.85      0.00
                                0.00      0.00    895.85

     hartree stress (kbar)   1920.51     -0.00     -0.00
                               -0.00   1920.51      0.00
                               -0.00      0.00   1920.51

     exc-cor stress (kbar)  12007.45      0.00      0.00
                                0.00  12007.45      0.00
                                0.00      0.00  12007.45

     corecor stress (kbar) -13606.50     -0.00     -0.00
                               -0.00 -13606.50      0.00
                               -0.00      0.00 -13606.50

     ewald   stress (kbar)  -4296.03     -0.00      0.00
                               -0.00  -4296.03     -0.00
                                0.00     -0.00  -4296.03

     hubbard stress (kbar)      0.00      0.00      0.00
                                0.00      0.00      0.00
                                0.00      0.00      0.00

     DFT-D   stress (kbar)      0.00      0.00      0.00
                                0.00      0.00      0.00
                                0.00      0.00      0.00

     XDM     stress (kbar)      0.00      0.00      0.00
                                0.00      0.00      0.00
                                0.00      0.00      0.00

     dft-nl  stress (kbar)      0.00      0.00      0.00
                                0.00      0.00      0.00
                                0.00      0.00      0.00

     TS-vdW  stress (kbar)      0.00      0.00      0.00
                                0.00      0.00      0.00
                                0.00      0.00      0.00



     Writing output data file ../../out/aiida.save/

     init_run     :    395.13s CPU    398.50s WALL (       1 calls)
     electrons    :  17462.22s CPU  17553.08s WALL (       1 calls)
     forces       :    270.34s CPU    273.83s WALL (       1 calls)
     stress       :    382.41s CPU    390.73s WALL (       1 calls)

     Called by init_run:
     wfcinit      :    374.49s CPU    375.47s WALL (       1 calls)
     wfcinit:atom :      0.56s CPU      0.84s WALL (       4 calls)
     wfcinit:wfcr :    369.95s CPU    370.29s WALL (       4 calls)
     potinit      :      4.05s CPU      4.21s WALL (       1 calls)
     hinit0       :      1.75s CPU      1.78s WALL (       1 calls)

     Called by electrons:
     c_bands      :  15699.45s CPU  15726.11s WALL (      14 calls)
     sum_band     :   1491.35s CPU   1526.01s WALL (      14 calls)
     v_of_rho     :     23.87s CPU     25.38s WALL (      14 calls)
     v_h          :      1.50s CPU      1.51s WALL (      14 calls)
     v_xc         :     25.51s CPU     27.33s WALL (      16 calls)
     newd         :    228.82s CPU    258.94s WALL (      14 calls)
     PAW_pot      :     29.29s CPU     29.30s WALL (      14 calls)
     mix_rho      :      4.64s CPU      4.67s WALL (      14 calls)

     Called by c_bands:
     init_us_2    :     17.52s CPU     17.63s WALL (     124 calls)
     cegterg      :  15608.06s CPU  15634.61s WALL (      56 calls)

     Called by sum_band:
     sum_band:wei :      0.01s CPU      0.01s WALL (      14 calls)
     sum_band:loo :   1128.91s CPU   1129.22s WALL (      14 calls)
     sum_band:buf :      3.59s CPU      3.59s WALL (      56 calls)
     sum_band:ini :      7.93s CPU      7.93s WALL (      56 calls)
     sum_band:cal :    776.40s CPU    776.54s WALL (      56 calls)
     sum_band:bec :      0.17s CPU      0.17s WALL (      56 calls)
     addusdens    :    359.07s CPU    393.42s WALL (      14 calls)
     addusd:skk   :      3.52s CPU      6.02s WALL (      42 calls)
     addusd:dgemm :    236.55s CPU    262.57s WALL (      42 calls)
     addusd:qvan2 :    112.51s CPU    112.57s WALL (      42 calls)

     Called by *egterg:
     cdiaghg      :     75.57s CPU     75.59s WALL (     420 calls)
     cegterg:over :   2067.43s CPU   2067.99s WALL (     368 calls)
     cegterg:upda :   1349.35s CPU   1352.97s WALL (     368 calls)
     cegterg:last :   3018.85s CPU   3019.86s WALL (     117 calls)
     h_psi        :   6283.25s CPU   6291.18s WALL (     428 calls)
     s_psi        :   2326.52s CPU   2327.15s WALL (     428 calls)
     g_psi        :     20.37s CPU     20.37s WALL (     368 calls)

     Called by h_psi:
     h_psi:calbec :   2162.44s CPU   2162.98s WALL (     428 calls)
     vloc_psi     :   1788.44s CPU   1789.41s WALL (     428 calls)
     add_vuspsi   :   2323.70s CPU   2324.23s WALL (     428 calls)

     General routines
     calbec       :   3213.62s CPU   3214.46s WALL (     504 calls)
     fft          :     15.23s CPU     15.24s WALL (     206 calls)
     ffts         :      0.84s CPU      0.85s WALL (      28 calls)
     fftw         :   1789.12s CPU   1789.84s WALL (   77104 calls)
     interpolate  :      1.87s CPU      1.88s WALL (      14 calls)

     Parallel routines

     PAW routines
     PAW_pot      :     29.29s CPU     29.30s WALL (      14 calls)
     PAW_symme    :      0.07s CPU      0.07s WALL (      28 calls)

     PWSCF        :      5h 8m CPU      5h10m WALL


   This run was terminated on:  13:29:45   2Apr2024            

=------------------------------------------------------------------------------=
   JOB DONE.
=------------------------------------------------------------------------------=
