### Running on host: fes33

     Program PWSCF v.6.7MaX starts on  1Apr2024 at 17:38: 2 

     This program is part of the open-source Quantum ESPRESSO suite
     for quantum simulation of materials; please cite
         "P. Giannozzi et al., J. Phys.:Condens. Matter 21 395502 (2009);
         "P. Giannozzi et al., J. Phys.:Condens. Matter 29 465901 (2017);
          URL http://www.quantum-espresso.org", 
     in publications or presentations arising from this work. More details at
     http://www.quantum-espresso.org/quote

     Parallel version (MPI), running on     1 processors

     MPI processes distributed on     1 nodes
     Reading input from pwscf_ecutwfc-28.in

     Current dimensions of program PWSCF are:
     Max number of different atomic species (ntypx) = 10
     Max number of k-points (npk) =  40000
     Max angular momentum in pseudopotentials (lmaxx) =  3
     file Pb.pbe-dn-kjpaw_psl.0.2.2.UPF: wavefunction(s)  6S renormalized

     Subspace diagonalization in iterative solution of the eigenvalue problem:
     a serial algorithm will be used

     Found symmetry operation: I + (  0.0000  0.0000  0.5000)
     This is a supercell, fractional translations are disabled
     Message from routine setup:
     using ibrav=0 with symmetry is DISCOURAGED, use correct ibrav instead

     G-vector sticks info
     --------------------
     sticks:   dense  smooth     PW     G-vecs:    dense   smooth      PW
     Sum       14817    5193   1369              1356433   281225   38161



     bravais-lattice index     =            0
     lattice parameter (alat)  =      24.1188  a.u.
     unit-cell volume          =   14030.3801 (a.u.)^3
     number of atoms/cell      =           40
     number of atomic types    =            3
     number of electrons       =       352.00
     number of Kohn-Sham states=          211
     kinetic-energy cutoff     =      28.0000  Ry
     charge density cutoff     =     320.0000  Ry
     scf convergence threshold =      8.0E-09
     mixing beta               =       0.4000
     number of iterations used =            8  plain     mixing
     Exchange-correlation= SLA  PW   PBX  PBC
                           (   1   4   3   4   0   0   0)

     celldm(1)=  24.118843  celldm(2)=   0.000000  celldm(3)=   0.000000
     celldm(4)=   0.000000  celldm(5)=   0.000000  celldm(6)=   0.000000

     crystal axes: (cart. coord. in units of alat)
               a(1) = (   1.000000   0.000000   0.000000 )  
               a(2) = (   0.000000   1.000000   0.000000 )  
               a(3) = (   0.000000   0.000000   1.000000 )  

     reciprocal axes: (cart. coord. in units 2 pi/alat)
               b(1) = (  1.000000  0.000000  0.000000 )  
               b(2) = (  0.000000  1.000000  0.000000 )  
               b(3) = (  0.000000  0.000000  1.000000 )  


     PseudoPot. # 1 for Cs read from file:
     ../../pseudo/Cs_pbe_v1.uspp.F.UPF
     MD5 check sum: 3476d69cb178dfad3ffaa59df4e07ca4
     Pseudo is Ultrasoft + core correction, Zval =  9.0
     Generated by new atomic code, or converted to UPF format
     Using radial grid of  905 points,  6 beta functions with: 
                l(1) =   0
                l(2) =   0
                l(3) =   1
                l(4) =   1
                l(5) =   2
                l(6) =   2
     Q(r) pseudized with  6 coefficients,  rinner =    1.500   1.500   1.500
                                                       1.500   1.500

     PseudoPot. # 2 for I  read from file:
     ../../pseudo/I.pbe-n-kjpaw_psl.0.2.UPF
     MD5 check sum: d4ef18d9c8f18dc85e5843bca1e50dc0
     Pseudo is Projector augmented-wave + core cor, Zval =  7.0
     Generated using "atomic" code by A. Dal Corso  v.5.0.99 svn rev. 10869
     Shape of augmentation charge: PSQ
     Using radial grid of 1247 points,  4 beta functions with: 
                l(1) =   0
                l(2) =   0
                l(3) =   1
                l(4) =   1
     Q(r) pseudized with 0 coefficients 


     PseudoPot. # 3 for Pb read from file:
     ../../pseudo/Pb.pbe-dn-kjpaw_psl.0.2.2.UPF
     MD5 check sum: 9d431e6316058b74ade52399a6cf67da
     Pseudo is Projector augmented-wave + core cor, Zval = 14.0
     Generated using "atomic" code by A. Dal Corso  v.5.0.99 svn rev. 10869
     Shape of augmentation charge: PSQ
     Using radial grid of 1281 points,  6 beta functions with: 
                l(1) =   0
                l(2) =   0
                l(3) =   1
                l(4) =   1
                l(5) =   2
                l(6) =   2
     Q(r) pseudized with 0 coefficients 


     atomic species   valence    mass     pseudopotential
        Cs             9.00   132.90545     Cs( 1.00)
        I              7.00   126.90447     I ( 1.00)
        Pb            14.00   207.20000     Pb( 1.00)

     48 Sym. Ops., with inversion, found


                                    s                        frac. trans.

      isym =  1     identity                                     

 cryst.   s( 1) = (     1          0          0      )
                  (     0          1          0      )
                  (     0          0          1      )

 cart.    s( 1) = (  1.0000000  0.0000000  0.0000000 )
                  (  0.0000000  1.0000000  0.0000000 )
                  (  0.0000000  0.0000000  1.0000000 )


      isym =  2     180 deg rotation - cart. axis [0,0,1]        

 cryst.   s( 2) = (    -1          0          0      )
                  (     0         -1          0      )
                  (     0          0          1      )

 cart.    s( 2) = ( -1.0000000  0.0000000  0.0000000 )
                  (  0.0000000 -1.0000000  0.0000000 )
                  (  0.0000000  0.0000000  1.0000000 )


      isym =  3     180 deg rotation - cart. axis [0,1,0]        

 cryst.   s( 3) = (    -1          0          0      )
                  (     0          1          0      )
                  (     0          0         -1      )

 cart.    s( 3) = ( -1.0000000  0.0000000  0.0000000 )
                  (  0.0000000  1.0000000  0.0000000 )
                  (  0.0000000  0.0000000 -1.0000000 )


      isym =  4     180 deg rotation - cart. axis [1,0,0]        

 cryst.   s( 4) = (     1          0          0      )
                  (     0         -1          0      )
                  (     0          0         -1      )

 cart.    s( 4) = (  1.0000000  0.0000000  0.0000000 )
                  (  0.0000000 -1.0000000  0.0000000 )
                  (  0.0000000  0.0000000 -1.0000000 )


      isym =  5     180 deg rotation - cart. axis [1,1,0]        

 cryst.   s( 5) = (     0          1          0      )
                  (     1          0          0      )
                  (     0          0         -1      )

 cart.    s( 5) = (  0.0000000  1.0000000  0.0000000 )
                  (  1.0000000  0.0000000  0.0000000 )
                  (  0.0000000  0.0000000 -1.0000000 )


      isym =  6     180 deg rotation - cart. axis [1,-1,0]       

 cryst.   s( 6) = (     0         -1          0      )
                  (    -1          0          0      )
                  (     0          0         -1      )

 cart.    s( 6) = (  0.0000000 -1.0000000  0.0000000 )
                  ( -1.0000000  0.0000000  0.0000000 )
                  (  0.0000000  0.0000000 -1.0000000 )


      isym =  7      90 deg rotation - cart. axis [0,0,-1]       

 cryst.   s( 7) = (     0         -1          0      )
                  (     1          0          0      )
                  (     0          0          1      )

 cart.    s( 7) = (  0.0000000  1.0000000  0.0000000 )
                  ( -1.0000000  0.0000000  0.0000000 )
                  (  0.0000000  0.0000000  1.0000000 )


      isym =  8      90 deg rotation - cart. axis [0,0,1]        

 cryst.   s( 8) = (     0          1          0      )
                  (    -1          0          0      )
                  (     0          0          1      )

 cart.    s( 8) = (  0.0000000 -1.0000000  0.0000000 )
                  (  1.0000000  0.0000000  0.0000000 )
                  (  0.0000000  0.0000000  1.0000000 )


      isym =  9     180 deg rotation - cart. axis [1,0,1]        

 cryst.   s( 9) = (     0          0          1      )
                  (     0         -1          0      )
                  (     1          0          0      )

 cart.    s( 9) = (  0.0000000  0.0000000  1.0000000 )
                  (  0.0000000 -1.0000000  0.0000000 )
                  (  1.0000000  0.0000000  0.0000000 )


      isym = 10     180 deg rotation - cart. axis [-1,0,1]       

 cryst.   s(10) = (     0          0         -1      )
                  (     0         -1          0      )
                  (    -1          0          0      )

 cart.    s(10) = (  0.0000000  0.0000000 -1.0000000 )
                  (  0.0000000 -1.0000000  0.0000000 )
                  ( -1.0000000  0.0000000  0.0000000 )


      isym = 11      90 deg rotation - cart. axis [0,1,0]        

 cryst.   s(11) = (     0          0         -1      )
                  (     0          1          0      )
                  (     1          0          0      )

 cart.    s(11) = (  0.0000000  0.0000000  1.0000000 )
                  (  0.0000000  1.0000000  0.0000000 )
                  ( -1.0000000  0.0000000  0.0000000 )


      isym = 12      90 deg rotation - cart. axis [0,-1,0]       

 cryst.   s(12) = (     0          0          1      )
                  (     0          1          0      )
                  (    -1          0          0      )

 cart.    s(12) = (  0.0000000  0.0000000 -1.0000000 )
                  (  0.0000000  1.0000000  0.0000000 )
                  (  1.0000000  0.0000000  0.0000000 )


      isym = 13     180 deg rotation - cart. axis [0,1,1]        

 cryst.   s(13) = (    -1          0          0      )
                  (     0          0          1      )
                  (     0          1          0      )

 cart.    s(13) = ( -1.0000000  0.0000000  0.0000000 )
                  (  0.0000000  0.0000000  1.0000000 )
                  (  0.0000000  1.0000000  0.0000000 )


      isym = 14     180 deg rotation - cart. axis [0,1,-1]       

 cryst.   s(14) = (    -1          0          0      )
                  (     0          0         -1      )
                  (     0         -1          0      )

 cart.    s(14) = ( -1.0000000  0.0000000  0.0000000 )
                  (  0.0000000  0.0000000 -1.0000000 )
                  (  0.0000000 -1.0000000  0.0000000 )


      isym = 15      90 deg rotation - cart. axis [-1,0,0]       

 cryst.   s(15) = (     1          0          0      )
                  (     0          0         -1      )
                  (     0          1          0      )

 cart.    s(15) = (  1.0000000  0.0000000  0.0000000 )
                  (  0.0000000  0.0000000  1.0000000 )
                  (  0.0000000 -1.0000000  0.0000000 )


      isym = 16      90 deg rotation - cart. axis [1,0,0]        

 cryst.   s(16) = (     1          0          0      )
                  (     0          0          1      )
                  (     0         -1          0      )

 cart.    s(16) = (  1.0000000  0.0000000  0.0000000 )
                  (  0.0000000  0.0000000 -1.0000000 )
                  (  0.0000000  1.0000000  0.0000000 )


      isym = 17     120 deg rotation - cart. axis [-1,-1,-1]     

 cryst.   s(17) = (     0          0          1      )
                  (     1          0          0      )
                  (     0          1          0      )

 cart.    s(17) = (  0.0000000  1.0000000  0.0000000 )
                  (  0.0000000  0.0000000  1.0000000 )
                  (  1.0000000  0.0000000  0.0000000 )


      isym = 18     120 deg rotation - cart. axis [-1,1,1]       

 cryst.   s(18) = (     0          0         -1      )
                  (    -1          0          0      )
                  (     0          1          0      )

 cart.    s(18) = (  0.0000000 -1.0000000  0.0000000 )
                  (  0.0000000  0.0000000  1.0000000 )
                  ( -1.0000000  0.0000000  0.0000000 )


      isym = 19     120 deg rotation - cart. axis [1,1,-1]       

 cryst.   s(19) = (     0          0         -1      )
                  (     1          0          0      )
                  (     0         -1          0      )

 cart.    s(19) = (  0.0000000  1.0000000  0.0000000 )
                  (  0.0000000  0.0000000 -1.0000000 )
                  ( -1.0000000  0.0000000  0.0000000 )


      isym = 20     120 deg rotation - cart. axis [1,-1,1]       

 cryst.   s(20) = (     0          0          1      )
                  (    -1          0          0      )
                  (     0         -1          0      )

 cart.    s(20) = (  0.0000000 -1.0000000  0.0000000 )
                  (  0.0000000  0.0000000 -1.0000000 )
                  (  1.0000000  0.0000000  0.0000000 )


      isym = 21     120 deg rotation - cart. axis [1,1,1]        

 cryst.   s(21) = (     0          1          0      )
                  (     0          0          1      )
                  (     1          0          0      )

 cart.    s(21) = (  0.0000000  0.0000000  1.0000000 )
                  (  1.0000000  0.0000000  0.0000000 )
                  (  0.0000000  1.0000000  0.0000000 )


      isym = 22     120 deg rotation - cart. axis [-1,1,-1]      

 cryst.   s(22) = (     0         -1          0      )
                  (     0          0         -1      )
                  (     1          0          0      )

 cart.    s(22) = (  0.0000000  0.0000000  1.0000000 )
                  ( -1.0000000  0.0000000  0.0000000 )
                  (  0.0000000 -1.0000000  0.0000000 )


      isym = 23     120 deg rotation - cart. axis [1,-1,-1]      

 cryst.   s(23) = (     0         -1          0      )
                  (     0          0          1      )
                  (    -1          0          0      )

 cart.    s(23) = (  0.0000000  0.0000000 -1.0000000 )
                  ( -1.0000000  0.0000000  0.0000000 )
                  (  0.0000000  1.0000000  0.0000000 )


      isym = 24     120 deg rotation - cart. axis [-1,-1,1]      

 cryst.   s(24) = (     0          1          0      )
                  (     0          0         -1      )
                  (    -1          0          0      )

 cart.    s(24) = (  0.0000000  0.0000000 -1.0000000 )
                  (  1.0000000  0.0000000  0.0000000 )
                  (  0.0000000 -1.0000000  0.0000000 )


      isym = 25     inversion                                    

 cryst.   s(25) = (    -1          0          0      )
                  (     0         -1          0      )
                  (     0          0         -1      )

 cart.    s(25) = ( -1.0000000  0.0000000  0.0000000 )
                  (  0.0000000 -1.0000000  0.0000000 )
                  (  0.0000000  0.0000000 -1.0000000 )


      isym = 26     inv. 180 deg rotation - cart. axis [0,0,1]   

 cryst.   s(26) = (     1          0          0      )
                  (     0          1          0      )
                  (     0          0         -1      )

 cart.    s(26) = (  1.0000000  0.0000000  0.0000000 )
                  (  0.0000000  1.0000000  0.0000000 )
                  (  0.0000000  0.0000000 -1.0000000 )


      isym = 27     inv. 180 deg rotation - cart. axis [0,1,0]   

 cryst.   s(27) = (     1          0          0      )
                  (     0         -1          0      )
                  (     0          0          1      )

 cart.    s(27) = (  1.0000000  0.0000000  0.0000000 )
                  (  0.0000000 -1.0000000  0.0000000 )
                  (  0.0000000  0.0000000  1.0000000 )


      isym = 28     inv. 180 deg rotation - cart. axis [1,0,0]   

 cryst.   s(28) = (    -1          0          0      )
                  (     0          1          0      )
                  (     0          0          1      )

 cart.    s(28) = ( -1.0000000  0.0000000  0.0000000 )
                  (  0.0000000  1.0000000  0.0000000 )
                  (  0.0000000  0.0000000  1.0000000 )


      isym = 29     inv. 180 deg rotation - cart. axis [1,1,0]   

 cryst.   s(29) = (     0         -1          0      )
                  (    -1          0          0      )
                  (     0          0          1      )

 cart.    s(29) = (  0.0000000 -1.0000000  0.0000000 )
                  ( -1.0000000  0.0000000  0.0000000 )
                  (  0.0000000  0.0000000  1.0000000 )


      isym = 30     inv. 180 deg rotation - cart. axis [1,-1,0]  

 cryst.   s(30) = (     0          1          0      )
                  (     1          0          0      )
                  (     0          0          1      )

 cart.    s(30) = (  0.0000000  1.0000000  0.0000000 )
                  (  1.0000000  0.0000000  0.0000000 )
                  (  0.0000000  0.0000000  1.0000000 )


      isym = 31     inv.  90 deg rotation - cart. axis [0,0,-1]  

 cryst.   s(31) = (     0          1          0      )
                  (    -1          0          0      )
                  (     0          0         -1      )

 cart.    s(31) = (  0.0000000 -1.0000000  0.0000000 )
                  (  1.0000000  0.0000000  0.0000000 )
                  (  0.0000000  0.0000000 -1.0000000 )


      isym = 32     inv.  90 deg rotation - cart. axis [0,0,1]   

 cryst.   s(32) = (     0         -1          0      )
                  (     1          0          0      )
                  (     0          0         -1      )

 cart.    s(32) = (  0.0000000  1.0000000  0.0000000 )
                  ( -1.0000000  0.0000000  0.0000000 )
                  (  0.0000000  0.0000000 -1.0000000 )


      isym = 33     inv. 180 deg rotation - cart. axis [1,0,1]   

 cryst.   s(33) = (     0          0         -1      )
                  (     0          1          0      )
                  (    -1          0          0      )

 cart.    s(33) = (  0.0000000  0.0000000 -1.0000000 )
                  (  0.0000000  1.0000000  0.0000000 )
                  ( -1.0000000  0.0000000  0.0000000 )


      isym = 34     inv. 180 deg rotation - cart. axis [-1,0,1]  

 cryst.   s(34) = (     0          0          1      )
                  (     0          1          0      )
                  (     1          0          0      )

 cart.    s(34) = (  0.0000000  0.0000000  1.0000000 )
                  (  0.0000000  1.0000000  0.0000000 )
                  (  1.0000000  0.0000000  0.0000000 )


      isym = 35     inv.  90 deg rotation - cart. axis [0,1,0]   

 cryst.   s(35) = (     0          0          1      )
                  (     0         -1          0      )
                  (    -1          0          0      )

 cart.    s(35) = (  0.0000000  0.0000000 -1.0000000 )
                  (  0.0000000 -1.0000000  0.0000000 )
                  (  1.0000000  0.0000000  0.0000000 )


      isym = 36     inv.  90 deg rotation - cart. axis [0,-1,0]  

 cryst.   s(36) = (     0          0         -1      )
                  (     0         -1          0      )
                  (     1          0          0      )

 cart.    s(36) = (  0.0000000  0.0000000  1.0000000 )
                  (  0.0000000 -1.0000000  0.0000000 )
                  ( -1.0000000  0.0000000  0.0000000 )


      isym = 37     inv. 180 deg rotation - cart. axis [0,1,1]   

 cryst.   s(37) = (     1          0          0      )
                  (     0          0         -1      )
                  (     0         -1          0      )

 cart.    s(37) = (  1.0000000  0.0000000  0.0000000 )
                  (  0.0000000  0.0000000 -1.0000000 )
                  (  0.0000000 -1.0000000  0.0000000 )


      isym = 38     inv. 180 deg rotation - cart. axis [0,1,-1]  

 cryst.   s(38) = (     1          0          0      )
                  (     0          0          1      )
                  (     0          1          0      )

 cart.    s(38) = (  1.0000000  0.0000000  0.0000000 )
                  (  0.0000000  0.0000000  1.0000000 )
                  (  0.0000000  1.0000000  0.0000000 )


      isym = 39     inv.  90 deg rotation - cart. axis [-1,0,0]  

 cryst.   s(39) = (    -1          0          0      )
                  (     0          0          1      )
                  (     0         -1          0      )

 cart.    s(39) = ( -1.0000000  0.0000000  0.0000000 )
                  (  0.0000000  0.0000000 -1.0000000 )
                  (  0.0000000  1.0000000  0.0000000 )


      isym = 40     inv.  90 deg rotation - cart. axis [1,0,0]   

 cryst.   s(40) = (    -1          0          0      )
                  (     0          0         -1      )
                  (     0          1          0      )

 cart.    s(40) = ( -1.0000000  0.0000000  0.0000000 )
                  (  0.0000000  0.0000000  1.0000000 )
                  (  0.0000000 -1.0000000  0.0000000 )


      isym = 41     inv. 120 deg rotation - cart. axis [-1,-1,-1]

 cryst.   s(41) = (     0          0         -1      )
                  (    -1          0          0      )
                  (     0         -1          0      )

 cart.    s(41) = (  0.0000000 -1.0000000  0.0000000 )
                  (  0.0000000  0.0000000 -1.0000000 )
                  ( -1.0000000  0.0000000  0.0000000 )


      isym = 42     inv. 120 deg rotation - cart. axis [-1,1,1]  

 cryst.   s(42) = (     0          0          1      )
                  (     1          0          0      )
                  (     0         -1          0      )

 cart.    s(42) = (  0.0000000  1.0000000  0.0000000 )
                  (  0.0000000  0.0000000 -1.0000000 )
                  (  1.0000000  0.0000000  0.0000000 )


      isym = 43     inv. 120 deg rotation - cart. axis [1,1,-1]  

 cryst.   s(43) = (     0          0          1      )
                  (    -1          0          0      )
                  (     0          1          0      )

 cart.    s(43) = (  0.0000000 -1.0000000  0.0000000 )
                  (  0.0000000  0.0000000  1.0000000 )
                  (  1.0000000  0.0000000  0.0000000 )


      isym = 44     inv. 120 deg rotation - cart. axis [1,-1,1]  

 cryst.   s(44) = (     0          0         -1      )
                  (     1          0          0      )
                  (     0          1          0      )

 cart.    s(44) = (  0.0000000  1.0000000  0.0000000 )
                  (  0.0000000  0.0000000  1.0000000 )
                  ( -1.0000000  0.0000000  0.0000000 )


      isym = 45     inv. 120 deg rotation - cart. axis [1,1,1]   

 cryst.   s(45) = (     0         -1          0      )
                  (     0          0         -1      )
                  (    -1          0          0      )

 cart.    s(45) = (  0.0000000  0.0000000 -1.0000000 )
                  ( -1.0000000  0.0000000  0.0000000 )
                  (  0.0000000 -1.0000000  0.0000000 )


      isym = 46     inv. 120 deg rotation - cart. axis [-1,1,-1] 

 cryst.   s(46) = (     0          1          0      )
                  (     0          0          1      )
                  (    -1          0          0      )

 cart.    s(46) = (  0.0000000  0.0000000 -1.0000000 )
                  (  1.0000000  0.0000000  0.0000000 )
                  (  0.0000000  1.0000000  0.0000000 )


      isym = 47     inv. 120 deg rotation - cart. axis [1,-1,-1] 

 cryst.   s(47) = (     0          1          0      )
                  (     0          0         -1      )
                  (     1          0          0      )

 cart.    s(47) = (  0.0000000  0.0000000  1.0000000 )
                  (  1.0000000  0.0000000  0.0000000 )
                  (  0.0000000 -1.0000000  0.0000000 )


      isym = 48     inv. 120 deg rotation - cart. axis [-1,-1,1] 

 cryst.   s(48) = (     0         -1          0      )
                  (     0          0          1      )
                  (     1          0          0      )

 cart.    s(48) = (  0.0000000  0.0000000  1.0000000 )
                  ( -1.0000000  0.0000000  0.0000000 )
                  (  0.0000000  1.0000000  0.0000000 )


   Cartesian axes

     site n.     atom                  positions (alat units)
         1           Cs  tau(   1) = (   0.2500001   0.2500001   0.2500001  )
         2           Cs  tau(   2) = (   0.2500001   0.2500001   0.7499999  )
         3           Cs  tau(   3) = (   0.2500001   0.7499999   0.2500001  )
         4           Cs  tau(   4) = (   0.2500001   0.7499999   0.7499999  )
         5           Cs  tau(   5) = (   0.7499999   0.2500001   0.2500001  )
         6           Cs  tau(   6) = (   0.7499999   0.2500001   0.7499999  )
         7           Cs  tau(   7) = (   0.7499999   0.7499999   0.2500001  )
         8           Cs  tau(   8) = (   0.7499999   0.7499999   0.7499999  )
         9           Pb  tau(   9) = (   0.0000000   0.0000000   0.0000000  )
        10           Pb  tau(  10) = (   0.0000000   0.0000000   0.5000000  )
        11           Pb  tau(  11) = (   0.0000000   0.5000000   0.0000000  )
        12           Pb  tau(  12) = (   0.0000000   0.5000000   0.5000000  )
        13           Pb  tau(  13) = (   0.5000000   0.0000000   0.0000000  )
        14           Pb  tau(  14) = (   0.5000000   0.0000000   0.5000000  )
        15           Pb  tau(  15) = (   0.5000000   0.5000000   0.0000000  )
        16           Pb  tau(  16) = (   0.5000000   0.5000000   0.5000000  )
        17           I   tau(  17) = (   0.0000000   0.0000000   0.2500016  )
        18           I   tau(  18) = (   0.0000000   0.0000000   0.7499984  )
        19           I   tau(  19) = (   0.0000000   0.5000000   0.2500017  )
        20           I   tau(  20) = (   0.0000000   0.5000000   0.7499983  )
        21           I   tau(  21) = (   0.5000000   0.0000000   0.2500017  )
        22           I   tau(  22) = (   0.5000000   0.0000000   0.7499983  )
        23           I   tau(  23) = (   0.5000000   0.5000000   0.2500017  )
        24           I   tau(  24) = (   0.5000000   0.5000000   0.7499983  )
        25           I   tau(  25) = (   0.0000000   0.2500016   0.0000000  )
        26           I   tau(  26) = (   0.0000000   0.2500017   0.5000000  )
        27           I   tau(  27) = (   0.0000000   0.7499984   0.0000000  )
        28           I   tau(  28) = (   0.0000000   0.7499983   0.5000000  )
        29           I   tau(  29) = (   0.5000000   0.2500017   0.0000000  )
        30           I   tau(  30) = (   0.5000000   0.2500017   0.5000000  )
        31           I   tau(  31) = (   0.5000000   0.7499983   0.0000000  )
        32           I   tau(  32) = (   0.5000000   0.7499983   0.5000000  )
        33           I   tau(  33) = (   0.2500016   0.0000000   0.0000000  )
        34           I   tau(  34) = (   0.2500017   0.0000000   0.5000000  )
        35           I   tau(  35) = (   0.2500017   0.5000000   0.0000000  )
        36           I   tau(  36) = (   0.2500017   0.5000000   0.5000000  )
        37           I   tau(  37) = (   0.7499984   0.0000000   0.0000000  )
        38           I   tau(  38) = (   0.7499983   0.0000000   0.5000000  )
        39           I   tau(  39) = (   0.7499983   0.5000000   0.0000000  )
        40           I   tau(  40) = (   0.7499983   0.5000000   0.5000000  )

   Crystallographic axes

     site n.     atom                  positions (cryst. coord.)
         1           Cs  tau(   1) = (  0.2500001  0.2500001  0.2500001  )
         2           Cs  tau(   2) = (  0.2500001  0.2500001  0.7499999  )
         3           Cs  tau(   3) = (  0.2500001  0.7499999  0.2500001  )
         4           Cs  tau(   4) = (  0.2500001  0.7499999  0.7499999  )
         5           Cs  tau(   5) = (  0.7499999  0.2500001  0.2500001  )
         6           Cs  tau(   6) = (  0.7499999  0.2500001  0.7499999  )
         7           Cs  tau(   7) = (  0.7499999  0.7499999  0.2500001  )
         8           Cs  tau(   8) = (  0.7499999  0.7499999  0.7499999  )
         9           Pb  tau(   9) = (  0.0000000  0.0000000  0.0000000  )
        10           Pb  tau(  10) = (  0.0000000  0.0000000  0.5000000  )
        11           Pb  tau(  11) = (  0.0000000  0.5000000  0.0000000  )
        12           Pb  tau(  12) = (  0.0000000  0.5000000  0.5000000  )
        13           Pb  tau(  13) = (  0.5000000  0.0000000  0.0000000  )
        14           Pb  tau(  14) = (  0.5000000  0.0000000  0.5000000  )
        15           Pb  tau(  15) = (  0.5000000  0.5000000  0.0000000  )
        16           Pb  tau(  16) = (  0.5000000  0.5000000  0.5000000  )
        17           I   tau(  17) = (  0.0000000  0.0000000  0.2500016  )
        18           I   tau(  18) = (  0.0000000  0.0000000  0.7499984  )
        19           I   tau(  19) = (  0.0000000  0.5000000  0.2500017  )
        20           I   tau(  20) = (  0.0000000  0.5000000  0.7499983  )
        21           I   tau(  21) = (  0.5000000  0.0000000  0.2500017  )
        22           I   tau(  22) = (  0.5000000  0.0000000  0.7499983  )
        23           I   tau(  23) = (  0.5000000  0.5000000  0.2500017  )
        24           I   tau(  24) = (  0.5000000  0.5000000  0.7499983  )
        25           I   tau(  25) = (  0.0000000  0.2500016  0.0000000  )
        26           I   tau(  26) = (  0.0000000  0.2500017  0.5000000  )
        27           I   tau(  27) = (  0.0000000  0.7499984  0.0000000  )
        28           I   tau(  28) = (  0.0000000  0.7499983  0.5000000  )
        29           I   tau(  29) = (  0.5000000  0.2500017  0.0000000  )
        30           I   tau(  30) = (  0.5000000  0.2500017  0.5000000  )
        31           I   tau(  31) = (  0.5000000  0.7499983  0.0000000  )
        32           I   tau(  32) = (  0.5000000  0.7499983  0.5000000  )
        33           I   tau(  33) = (  0.2500016  0.0000000  0.0000000  )
        34           I   tau(  34) = (  0.2500017  0.0000000  0.5000000  )
        35           I   tau(  35) = (  0.2500017  0.5000000  0.0000000  )
        36           I   tau(  36) = (  0.2500017  0.5000000  0.5000000  )
        37           I   tau(  37) = (  0.7499984  0.0000000  0.0000000  )
        38           I   tau(  38) = (  0.7499983  0.0000000  0.5000000  )
        39           I   tau(  39) = (  0.7499983  0.5000000  0.0000000  )
        40           I   tau(  40) = (  0.7499983  0.5000000  0.5000000  )

     number of k points=     4  Marzari-Vanderbilt smearing, width (Ry)=  0.0147
                       cart. coord. in units 2pi/alat
        k(    1) = (   0.0000000   0.0000000   0.0000000), wk =   0.0740741
        k(    2) = (   0.0000000   0.0000000   0.3333333), wk =   0.4444444
        k(    3) = (   0.0000000   0.3333333   0.3333333), wk =   0.8888889
        k(    4) = (   0.3333333   0.3333333   0.3333333), wk =   0.5925926

                       cryst. coord.
        k(    1) = (   0.0000000   0.0000000   0.0000000), wk =   0.0740741
        k(    2) = (   0.0000000   0.0000000   0.3333333), wk =   0.4444444
        k(    3) = (   0.0000000   0.3333333   0.3333333), wk =   0.8888889
        k(    4) = (   0.3333333   0.3333333   0.3333333), wk =   0.5925926

     Dense  grid:  1356433 G-vectors     FFT dimensions: ( 144, 144, 144)

     Smooth grid:   281225 G-vectors     FFT dimensions: (  81,  81,  81)

     Dynamical RAM for                 wfc:     113.02 MB

     Dynamical RAM for     wfc (w. buffer):     565.10 MB

     Dynamical RAM for           str. fact:      62.09 MB

     Dynamical RAM for           local pot:       0.00 MB

     Dynamical RAM for          nlocal pot:     257.11 MB

     Dynamical RAM for                qrad:       4.31 MB

     Dynamical RAM for          rho,v,vnew:     130.44 MB

     Dynamical RAM for               rhoin:      43.48 MB

     Dynamical RAM for            rho*nmix:     331.16 MB

     Dynamical RAM for           G-vectors:      79.76 MB

     Dynamical RAM for          h,s,v(r/c):       8.15 MB

     Dynamical RAM for          <psi|beta>:       1.55 MB

     Dynamical RAM for                 psi:     226.04 MB

     Dynamical RAM for                hpsi:     226.04 MB

     Dynamical RAM for                spsi:     226.04 MB

     Dynamical RAM for      wfcinit/wfcrot:     293.09 MB

     Dynamical RAM for           addusdens:    4346.48 MB

     Dynamical RAM for          addusforce:    5309.01 MB

     Dynamical RAM for         addusstress:    4160.20 MB

     Estimated static dynamical RAM per process >       1.63 GB

     Estimated max dynamical RAM per process >       6.82 GB

     Initial potential from superposition of free atoms

     starting charge  351.66429, renormalised to  352.00000
     Starting wfcs are  272 randomized atomic wfcs
     Checking if some PAW data can be deallocated... 

     total cpu time spent up to now is      192.3 secs

     Self-consistent Calculation

     iteration #  1     ecut=    28.00 Ry     beta= 0.40
     Davidson diagonalization with overlap
     ethr =  1.00E-02,  avg # of iterations =  3.0

     Threshold (ethr) on eigenvalues was too large:
     Diagonalizing with lowered threshold

     Davidson diagonalization with overlap
     ethr =  2.54E-04,  avg # of iterations =  6.8

     total cpu time spent up to now is     1119.0 secs

     total energy              =  -16565.60953390 Ry
     estimated scf accuracy    <       0.82233560 Ry

     iteration #  2     ecut=    28.00 Ry     beta= 0.40
     Davidson diagonalization with overlap
     ethr =  2.34E-04,  avg # of iterations =  2.0

     total cpu time spent up to now is     1610.2 secs

     total energy              =  -16565.73862629 Ry
     estimated scf accuracy    <       0.05597369 Ry

     iteration #  3     ecut=    28.00 Ry     beta= 0.40
     Davidson diagonalization with overlap
     c_bands:  5 eigenvalues not converged
     ethr =  1.59E-05,  avg # of iterations = 12.0

     total cpu time spent up to now is     2273.6 secs

     total energy              =  -16565.75586171 Ry
     estimated scf accuracy    <       0.01830230 Ry

     iteration #  4     ecut=    28.00 Ry     beta= 0.40
     Davidson diagonalization with overlap
     ethr =  5.20E-06,  avg # of iterations = 10.2

     total cpu time spent up to now is     2782.9 secs

     total energy              =  -16565.75815838 Ry
     estimated scf accuracy    <       0.00182267 Ry

     iteration #  5     ecut=    28.00 Ry     beta= 0.40
     Davidson diagonalization with overlap
     c_bands:  1 eigenvalues not converged
     ethr =  5.18E-07,  avg # of iterations =  9.0

     total cpu time spent up to now is     3276.4 secs

     total energy              =  -16565.75850608 Ry
     estimated scf accuracy    <       0.00025594 Ry

     iteration #  6     ecut=    28.00 Ry     beta= 0.40
     Davidson diagonalization with overlap
     ethr =  7.27E-08,  avg # of iterations =  6.0

     total cpu time spent up to now is     3799.9 secs

     total energy              =  -16565.75858962 Ry
     estimated scf accuracy    <       0.00001000 Ry

     iteration #  7     ecut=    28.00 Ry     beta= 0.40
     Davidson diagonalization with overlap
     ethr =  2.84E-09,  avg # of iterations =  5.0

     total cpu time spent up to now is     4513.2 secs

     total energy              =  -16565.75859893 Ry
     estimated scf accuracy    <       0.00000211 Ry

     iteration #  8     ecut=    28.00 Ry     beta= 0.40
     Davidson diagonalization with overlap
     ethr =  6.00E-10,  avg # of iterations =  4.2

     total cpu time spent up to now is     4995.8 secs

     total energy              =  -16565.75860024 Ry
     estimated scf accuracy    <       0.00000040 Ry

     iteration #  9     ecut=    28.00 Ry     beta= 0.40
     Davidson diagonalization with overlap
     ethr =  1.13E-10,  avg # of iterations =  4.8

     total cpu time spent up to now is     5530.6 secs

     total energy              =  -16565.75860047 Ry
     estimated scf accuracy    <       0.00000003 Ry

     iteration # 10     ecut=    28.00 Ry     beta= 0.40
     Davidson diagonalization with overlap
     ethr =  7.13E-12,  avg # of iterations =  6.0

     total cpu time spent up to now is     6171.0 secs

     End of self-consistent calculation

          k = 0.0000 0.0000 0.0000 ( 35033 PWs)   bands (ev):

   -18.6168 -18.6166 -18.6166 -18.6166 -18.6164 -18.6164 -18.6164 -18.6162
   -13.8436 -13.8436 -13.8436 -13.8435 -13.8435 -13.8379 -13.8379 -13.8379
   -13.8322 -13.8321 -13.8321 -13.8262 -13.8262 -13.8262 -13.8261 -13.8261
   -13.7908 -13.7908 -13.7908 -13.7907 -13.7907 -13.7907 -13.7905 -13.7905
   -13.7905 -13.7905 -13.7905 -13.7905 -13.7904 -13.7904 -13.7904 -13.7904
   -13.7904 -13.7904 -13.7901 -13.7901 -13.7901 -13.7900 -13.7900 -13.7900
    -9.3423  -9.1446  -9.1446  -9.1446  -8.9018  -8.9018  -8.9018  -8.8410
    -8.8410  -8.8410  -8.8410  -8.8410  -8.8410  -8.8405  -8.8405  -8.8405
    -8.8354  -8.8354  -8.8354  -8.6113  -8.6113  -8.6092  -8.6092  -8.6091
    -5.6630  -5.4054  -5.4054  -5.4054  -5.3924  -5.3924  -5.3924  -5.3922
    -5.3922  -5.3922  -5.3922  -5.3922  -5.3922  -5.3884  -5.3884  -5.3884
    -5.3884  -5.3884  -5.3884  -5.3851  -5.3851  -5.3851  -5.3842  -5.3842
    -5.3842  -5.1327  -5.1327  -5.1327  -4.6257  -4.6257  -4.6257  -4.1127
    -0.6262  -0.6262  -0.6262  -0.5232  -0.5232  -0.5232  -0.5232  -0.5232
    -0.5232  -0.3875  -0.3875  -0.3875   0.6127   0.6127   0.6127   0.7448
     0.7448   0.7448   0.8920   0.8920   0.8920   1.2110   1.2110   1.2110
     1.2110   1.2110   1.2110   1.3119   1.3119   1.3119   1.3119   1.3119
     1.3119   1.3605   1.3605   1.3605   1.3605   1.3605   1.3605   1.4220
     1.4220   1.4220   1.4557   1.4557   1.4557   1.4623   1.4623   1.5514
     1.5514   1.5514   1.5767   1.5767   1.5767   1.5767   1.5767   1.5767
     1.6652   1.6652   1.6652   1.9135   1.9135   1.9135   2.0518   2.0518
     2.0518   2.0640   2.0640   2.0640   2.3417   2.3418   2.3418   2.7696
     4.1976   4.1976   4.1976   4.6258   4.6258   4.6258   4.6258   4.6258
     4.6258   4.9580   4.9580   4.9580   5.9009   6.7537   6.9770   6.9770
     7.3247   7.3247   7.3247   7.4092   7.4092   7.4092   7.5512   7.5512
     7.5512   7.6047   7.6047   7.6048   7.7721   7.7721   7.7721   7.8725
     7.8732   7.9109   7.9109

     occupation numbers 
     1.0000   1.0000   1.0000   1.0000   1.0000   1.0000   1.0000   1.0000
     1.0000   1.0000   1.0000   1.0000   1.0000   1.0000   1.0000   1.0000
     1.0000   1.0000   1.0000   1.0000   1.0000   1.0000   1.0000   1.0000
     1.0000   1.0000   1.0000   1.0000   1.0000   1.0000   1.0000   1.0000
     1.0000   1.0000   1.0000   1.0000   1.0000   1.0000   1.0000   1.0000
     1.0000   1.0000   1.0000   1.0000   1.0000   1.0000   1.0000   1.0000
     1.0000   1.0000   1.0000   1.0000   1.0000   1.0000   1.0000   1.0000
     1.0000   1.0000   1.0000   1.0000   1.0000   1.0000   1.0000   1.0000
     1.0000   1.0000   1.0000   1.0000   1.0000   1.0000   1.0000   1.0000
     1.0000   1.0000   1.0000   1.0000   1.0000   1.0000   1.0000   1.0000
     1.0000   1.0000   1.0000   1.0000   1.0000   1.0000   1.0000   1.0000
     1.0000   1.0000   1.0000   1.0000   1.0000   1.0000   1.0000   1.0000
     1.0000   1.0000   1.0000   1.0000   1.0000   1.0000   1.0000   1.0000
     1.0000   1.0000   1.0000   1.0000   1.0000   1.0000   1.0000   1.0000
     1.0000   1.0000   1.0000   1.0000   1.0000   1.0000   1.0000   1.0000
     1.0000   1.0000   1.0000   1.0000   1.0000   1.0000   1.0000   1.0000
     1.0000   1.0000   1.0000   1.0000   1.0000   1.0000   1.0000   1.0000
     1.0000   1.0000   1.0000   1.0000   1.0000   1.0000   1.0000   1.0000
     1.0000   1.0000   1.0000   1.0000   1.0000   1.0000   1.0000   1.0000
     1.0000   1.0000   1.0000   1.0000   1.0000   1.0000   1.0000   1.0000
     1.0000   1.0000   1.0000   1.0000   1.0000   1.0000   1.0015   1.0015
     1.0015   1.0019   1.0019   1.0019   1.0791   1.0791   1.0791   0.1094
     0.0000   0.0000   0.0000   0.0000   0.0000   0.0000   0.0000   0.0000
     0.0000   0.0000   0.0000   0.0000   0.0000   0.0000   0.0000   0.0000
     0.0000   0.0000   0.0000   0.0000   0.0000   0.0000   0.0000   0.0000
     0.0000   0.0000   0.0000   0.0000   0.0000   0.0000   0.0000   0.0000
     0.0000   0.0000   0.0000

          k = 0.0000 0.0000 0.3333 ( 35132 PWs)   bands (ev):

   -18.6168 -18.6166 -18.6165 -18.6165 -18.6164 -18.6164 -18.6163 -18.6162
   -13.8436 -13.8436 -13.8416 -13.8416 -13.8407 -13.8388 -13.8388 -13.8350
   -13.8350 -13.8312 -13.8312 -13.8291 -13.8283 -13.8283 -13.8262 -13.8262
   -13.7908 -13.7907 -13.7907 -13.7907 -13.7906 -13.7906 -13.7905 -13.7905
   -13.7905 -13.7905 -13.7905 -13.7905 -13.7904 -13.7904 -13.7904 -13.7904
   -13.7903 -13.7903 -13.7902 -13.7902 -13.7901 -13.7901 -13.7901 -13.7900
    -9.3067  -9.2145  -9.1091  -9.1091  -9.0114  -9.0114  -8.8861  -8.8529
    -8.8409  -8.8409  -8.8406  -8.8406  -8.8396  -8.8396  -8.8368  -8.8368
    -8.7624  -8.7340  -8.7340  -8.6545  -8.6418  -8.6418  -8.6108  -8.6097
    -5.5431  -5.4021  -5.4021  -5.4004  -5.3955  -5.3955  -5.3914  -5.3914
    -5.3913  -5.3913  -5.3913  -5.3913  -5.3902  -5.3898  -5.3894  -5.3894
    -5.3894  -5.3894  -5.3876  -5.3876  -5.3869  -5.3869  -5.3860  -5.3860
    -5.3856  -5.2799  -5.0216  -5.0216  -4.7714  -4.7714  -4.5195  -4.2673
    -0.6021  -0.6021  -0.5507  -0.5507  -0.4921  -0.4921  -0.4245  -0.4245
    -0.2312  -0.1328  -0.1328   0.0072   0.5624   0.6451   0.6748   0.6748
     0.7110   0.7208   0.7208   0.8049   0.8049   0.8164   0.8164   0.9121
     0.9802   0.9802   1.2040   1.2040   1.2247   1.2247   1.3239   1.3239
     1.3481   1.3481   1.3802   1.3802   1.4154   1.4154   1.4530   1.4571
     1.4609   1.5120   1.5120   1.5123   1.5123   1.5135   1.5135   1.5176
     1.5577   1.5577   1.5919   1.5919   1.6046   1.6046   1.6274   1.6333
     1.6333   1.6647   1.6785   1.6785   1.9210   1.9210   1.9408   1.9408
     1.9453   1.9453   2.0548   2.0609   2.0881   2.0881   2.3668   2.4862
     4.3174   4.3174   4.5301   4.5301   4.7186   4.7186   4.8853   4.8853
     5.2176   5.5359   5.5359   5.8234   6.1533   6.7188   6.7886   6.9469
     7.0620   7.0620   7.1160   7.1830   7.4035   7.4513   7.4513   7.4538
     7.4575   7.5838   7.5841   7.5947   7.5947   7.6771   7.7411   7.7412
     7.7775   7.7780   7.8720

     occupation numbers 
     1.0000   1.0000   1.0000   1.0000   1.0000   1.0000   1.0000   1.0000
     1.0000   1.0000   1.0000   1.0000   1.0000   1.0000   1.0000   1.0000
     1.0000   1.0000   1.0000   1.0000   1.0000   1.0000   1.0000   1.0000
     1.0000   1.0000   1.0000   1.0000   1.0000   1.0000   1.0000   1.0000
     1.0000   1.0000   1.0000   1.0000   1.0000   1.0000   1.0000   1.0000
     1.0000   1.0000   1.0000   1.0000   1.0000   1.0000   1.0000   1.0000
     1.0000   1.0000   1.0000   1.0000   1.0000   1.0000   1.0000   1.0000
     1.0000   1.0000   1.0000   1.0000   1.0000   1.0000   1.0000   1.0000
     1.0000   1.0000   1.0000   1.0000   1.0000   1.0000   1.0000   1.0000
     1.0000   1.0000   1.0000   1.0000   1.0000   1.0000   1.0000   1.0000
     1.0000   1.0000   1.0000   1.0000   1.0000   1.0000   1.0000   1.0000
     1.0000   1.0000   1.0000   1.0000   1.0000   1.0000   1.0000   1.0000
     1.0000   1.0000   1.0000   1.0000   1.0000   1.0000   1.0000   1.0000
     1.0000   1.0000   1.0000   1.0000   1.0000   1.0000   1.0000   1.0000
     1.0000   1.0000   1.0000   1.0000   1.0000   1.0000   1.0000   1.0000
     1.0000   1.0000   1.0000   1.0000   1.0000   1.0000   1.0000   1.0000
     1.0000   1.0000   1.0000   1.0000   1.0000   1.0000   1.0000   1.0000
     1.0000   1.0000   1.0000   1.0000   1.0000   1.0000   1.0000   1.0000
     1.0000   1.0000   1.0000   1.0000   1.0000   1.0000   1.0000   1.0000
     1.0000   1.0000   1.0000   1.0000   1.0000   1.0000   1.0000   1.0000
     1.0000   1.0000   1.0000   1.0000   1.0001   1.0001   1.0001   1.0001
     1.0001   1.0001   1.0016   1.0018   1.0031   1.0031   1.0833   0.9633
     0.0000   0.0000   0.0000   0.0000   0.0000   0.0000   0.0000   0.0000
     0.0000   0.0000   0.0000   0.0000   0.0000   0.0000   0.0000   0.0000
     0.0000   0.0000   0.0000   0.0000   0.0000   0.0000   0.0000   0.0000
     0.0000   0.0000   0.0000   0.0000   0.0000   0.0000   0.0000   0.0000
     0.0000   0.0000   0.0000

          k = 0.0000 0.3333 0.3333 ( 35131 PWs)   bands (ev):

   -18.6167 -18.6166 -18.6166 -18.6165 -18.6165 -18.6164 -18.6164 -18.6163
   -13.8422 -13.8417 -13.8417 -13.8393 -13.8393 -13.8393 -13.8359 -13.8359
   -13.8341 -13.8341 -13.8307 -13.8306 -13.8306 -13.8282 -13.8282 -13.8277
   -13.7907 -13.7907 -13.7906 -13.7906 -13.7906 -13.7906 -13.7905 -13.7905
   -13.7905 -13.7905 -13.7905 -13.7905 -13.7904 -13.7904 -13.7904 -13.7904
   -13.7903 -13.7903 -13.7903 -13.7902 -13.7902 -13.7902 -13.7901 -13.7901
    -9.2716  -9.1801  -9.1801  -9.0888  -9.0763  -8.9868  -8.9868  -8.9229
    -8.8404  -8.8399  -8.8398  -8.8378  -8.7861  -8.7812  -8.7648  -8.7648
    -8.7451  -8.7451  -8.7112  -8.6714  -8.6682  -8.6415  -8.6415  -8.6337
    -5.4325  -5.4011  -5.3953  -5.3953  -5.3951  -5.3950  -5.3950  -5.3932
    -5.3926  -5.3919  -5.3919  -5.3907  -5.3907  -5.3904  -5.3899  -5.3888
    -5.3885  -5.3885  -5.3882  -5.3882  -5.3875  -5.3868  -5.3865  -5.3862
    -5.3862  -5.1667  -5.1667  -4.9157  -4.9135  -4.6656  -4.6656  -4.4173
    -0.5764  -0.5216  -0.5216  -0.4587  -0.2842  -0.1685  -0.1685  -0.1630
    -0.1331  -0.0404  -0.0383  -0.0383   0.5707   0.5797   0.5797   0.6370
     0.6971   0.6971   0.7284   0.7362   0.7362   0.7610   0.7774   0.7909
     0.8239   0.9838   0.9838   1.0486   1.0528   1.1605   1.1884   1.1884
     1.2289   1.2289   1.3331   1.3517   1.3678   1.4023   1.4023   1.4136
     1.4872   1.5295   1.5303   1.5303   1.5333   1.5536   1.5536   1.5666
     1.5844   1.5883   1.5965   1.5965   1.6266   1.6266   1.6728   1.6958
     1.6958   1.7118   1.7393   1.7595   1.7595   1.7935   1.8662   1.8935
     1.8994   1.9467   1.9467   1.9616   1.9812   2.0961   2.0961   2.1841
     4.4284   4.6282   4.6282   4.8059   5.2521   5.3337   5.4534   5.4534
     5.5783   5.6355   5.7526   5.7526   6.3647   6.7779   6.7779   6.8959
     6.8959   6.9150   6.9722   7.0816   7.1725   7.1725   7.2051   7.2870
     7.2993   7.3428   7.3528   7.4194   7.4425   7.4426   7.5887   7.5887
     7.5918   7.6278   7.7078

     occupation numbers 
     1.0000   1.0000   1.0000   1.0000   1.0000   1.0000   1.0000   1.0000
     1.0000   1.0000   1.0000   1.0000   1.0000   1.0000   1.0000   1.0000
     1.0000   1.0000   1.0000   1.0000   1.0000   1.0000   1.0000   1.0000
     1.0000   1.0000   1.0000   1.0000   1.0000   1.0000   1.0000   1.0000
     1.0000   1.0000   1.0000   1.0000   1.0000   1.0000   1.0000   1.0000
     1.0000   1.0000   1.0000   1.0000   1.0000   1.0000   1.0000   1.0000
     1.0000   1.0000   1.0000   1.0000   1.0000   1.0000   1.0000   1.0000
     1.0000   1.0000   1.0000   1.0000   1.0000   1.0000   1.0000   1.0000
     1.0000   1.0000   1.0000   1.0000   1.0000   1.0000   1.0000   1.0000
     1.0000   1.0000   1.0000   1.0000   1.0000   1.0000   1.0000   1.0000
     1.0000   1.0000   1.0000   1.0000   1.0000   1.0000   1.0000   1.0000
     1.0000   1.0000   1.0000   1.0000   1.0000   1.0000   1.0000   1.0000
     1.0000   1.0000   1.0000   1.0000   1.0000   1.0000   1.0000   1.0000
     1.0000   1.0000   1.0000   1.0000   1.0000   1.0000   1.0000   1.0000
     1.0000   1.0000   1.0000   1.0000   1.0000   1.0000   1.0000   1.0000
     1.0000   1.0000   1.0000   1.0000   1.0000   1.0000   1.0000   1.0000
     1.0000   1.0000   1.0000   1.0000   1.0000   1.0000   1.0000   1.0000
     1.0000   1.0000   1.0000   1.0000   1.0000   1.0000   1.0000   1.0000
     1.0000   1.0000   1.0000   1.0000   1.0000   1.0000   1.0000   1.0000
     1.0000   1.0000   1.0000   1.0000   1.0000   1.0000   1.0000   1.0000
     1.0000   1.0000   1.0000   1.0000   1.0000   1.0000   1.0000   1.0000
     1.0000   1.0001   1.0001   1.0002   1.0003   1.0037   1.0037   1.0171
     0.0000   0.0000   0.0000   0.0000   0.0000   0.0000   0.0000   0.0000
     0.0000   0.0000   0.0000   0.0000   0.0000   0.0000   0.0000   0.0000
     0.0000   0.0000   0.0000   0.0000   0.0000   0.0000   0.0000   0.0000
     0.0000   0.0000   0.0000   0.0000   0.0000   0.0000   0.0000   0.0000
     0.0000   0.0000   0.0000

          k = 0.3333 0.3333 0.3333 ( 35031 PWs)   bands (ev):

   -18.6167 -18.6165 -18.6165 -18.6165 -18.6164 -18.6164 -18.6164 -18.6163
   -13.8394 -13.8394 -13.8393 -13.8393 -13.8393 -13.8364 -13.8364 -13.8364
   -13.8336 -13.8335 -13.8335 -13.8306 -13.8306 -13.8306 -13.8305 -13.8305
   -13.7906 -13.7906 -13.7906 -13.7906 -13.7906 -13.7906 -13.7905 -13.7905
   -13.7905 -13.7905 -13.7905 -13.7905 -13.7904 -13.7904 -13.7904 -13.7904
   -13.7904 -13.7904 -13.7903 -13.7903 -13.7903 -13.7902 -13.7902 -13.7902
    -9.2372  -9.1474  -9.1474  -9.1474  -9.0610  -9.0610  -9.0610  -8.9883
    -8.7849  -8.7849  -8.7849  -8.7824  -8.7824  -8.7661  -8.7661  -8.7661
    -8.7294  -8.7294  -8.7294  -8.6706  -8.6706  -8.6690  -8.6690  -8.6690
    -5.3988  -5.3988  -5.3947  -5.3942  -5.3942  -5.3942  -5.3942  -5.3942
    -5.3942  -5.3925  -5.3925  -5.3925  -5.3921  -5.3921  -5.3914  -5.3914
    -5.3914  -5.3868  -5.3868  -5.3868  -5.3850  -5.3848  -5.3848  -5.3848
    -5.3086  -5.0577  -5.0577  -5.0577  -4.8098  -4.8098  -4.8098  -4.5638
    -0.2566  -0.2566  -0.1963  -0.1963  -0.1963  -0.0834  -0.0834  -0.0834
    -0.0799  -0.0799  -0.0799  -0.0399   0.5961   0.5961   0.5961   0.5972
     0.5972   0.5972   0.6515   0.6515   0.6515   0.6710   0.6710   0.6911
     0.9615   0.9615   0.9995   0.9995   0.9995   1.1311   1.1311   1.1311
     1.1755   1.1755   1.1755   1.2706   1.2706   1.2706   1.3174   1.3174
     1.4251   1.4423   1.4423   1.4423   1.4863   1.4863   1.4863   1.6672
     1.6796   1.6796   1.6796   1.7089   1.7089   1.7177   1.7177   1.7177
     1.7329   1.7329   1.7329   1.7357   1.7717   1.7717   1.7717   1.8250
     1.8250   1.8250   1.8825   1.8825   1.9003   1.9003   1.9003   1.9222
     5.3323   5.3323   5.4392   5.4956   5.4956   5.4956   5.5562   5.5562
     5.5562   5.6770   5.6770   5.6770   6.5136   6.8174   6.8174   6.8174
     6.8484   6.8484   6.8485   7.0183   7.0183   7.0184   7.1177   7.1536
     7.1536   7.1837   7.1838   7.1838   7.1904   7.2823   7.2823   7.2824
     7.4053   7.4053   7.7753

     occupation numbers 
     1.0000   1.0000   1.0000   1.0000   1.0000   1.0000   1.0000   1.0000
     1.0000   1.0000   1.0000   1.0000   1.0000   1.0000   1.0000   1.0000
     1.0000   1.0000   1.0000   1.0000   1.0000   1.0000   1.0000   1.0000
     1.0000   1.0000   1.0000   1.0000   1.0000   1.0000   1.0000   1.0000
     1.0000   1.0000   1.0000   1.0000   1.0000   1.0000   1.0000   1.0000
     1.0000   1.0000   1.0000   1.0000   1.0000   1.0000   1.0000   1.0000
     1.0000   1.0000   1.0000   1.0000   1.0000   1.0000   1.0000   1.0000
     1.0000   1.0000   1.0000   1.0000   1.0000   1.0000   1.0000   1.0000
     1.0000   1.0000   1.0000   1.0000   1.0000   1.0000   1.0000   1.0000
     1.0000   1.0000   1.0000   1.0000   1.0000   1.0000   1.0000   1.0000
     1.0000   1.0000   1.0000   1.0000   1.0000   1.0000   1.0000   1.0000
     1.0000   1.0000   1.0000   1.0000   1.0000   1.0000   1.0000   1.0000
     1.0000   1.0000   1.0000   1.0000   1.0000   1.0000   1.0000   1.0000
     1.0000   1.0000   1.0000   1.0000   1.0000   1.0000   1.0000   1.0000
     1.0000   1.0000   1.0000   1.0000   1.0000   1.0000   1.0000   1.0000
     1.0000   1.0000   1.0000   1.0000   1.0000   1.0000   1.0000   1.0000
     1.0000   1.0000   1.0000   1.0000   1.0000   1.0000   1.0000   1.0000
     1.0000   1.0000   1.0000   1.0000   1.0000   1.0000   1.0000   1.0000
     1.0000   1.0000   1.0000   1.0000   1.0000   1.0000   1.0000   1.0000
     1.0000   1.0000   1.0000   1.0000   1.0000   1.0000   1.0000   1.0000
     1.0000   1.0000   1.0000   1.0000   1.0000   1.0000   1.0000   1.0000
     1.0000   1.0000   1.0000   1.0000   1.0000   1.0000   1.0000   1.0001
     0.0000   0.0000   0.0000   0.0000   0.0000   0.0000   0.0000   0.0000
     0.0000   0.0000   0.0000   0.0000   0.0000   0.0000   0.0000   0.0000
     0.0000   0.0000   0.0000   0.0000   0.0000   0.0000   0.0000   0.0000
     0.0000   0.0000   0.0000   0.0000   0.0000   0.0000   0.0000   0.0000
     0.0000   0.0000   0.0000

     the Fermi energy is     2.6528 ev

!    total energy              =  -16565.75860051 Ry
     estimated scf accuracy    <          5.2E-09 Ry
     smearing contrib. (-TS)   =       0.00302865 Ry
     internal energy E=F+TS    =  -16565.76162916 Ry

     The total energy is F=E-TS. E is the sum of the following terms:
     one-electron contribution =    -767.65188784 Ry
     hartree contribution      =     550.14284525 Ry
     xc contribution           =   -1598.60686427 Ry
     ewald contribution        =   -1229.22289246 Ry
     one-center paw contrib.   =  -13520.42282983 Ry
      -> PAW hartree energy AE =    1008.15016428 Ry
      -> PAW hartree energy PS =   -1007.93165996 Ry
      -> PAW xc energy AE      =  -14841.36797104 Ry
      -> PAW xc energy PS      =    1320.72663689 Ry
      -> total E_H with PAW    =     550.36134957 Ry
      -> total E_XC with PAW   =  -15119.24819842 Ry

     convergence has been achieved in  10 iterations

     Forces acting on atoms (cartesian axes, Ry/au):

     atom    1 type  1   force =    -0.00000038   -0.00000038   -0.00000038
     atom    2 type  1   force =    -0.00000038   -0.00000038    0.00000038
     atom    3 type  1   force =    -0.00000038    0.00000038   -0.00000038
     atom    4 type  1   force =    -0.00000038    0.00000038    0.00000038
     atom    5 type  1   force =     0.00000038   -0.00000038   -0.00000038
     atom    6 type  1   force =     0.00000038   -0.00000038    0.00000038
     atom    7 type  1   force =     0.00000038    0.00000038   -0.00000038
     atom    8 type  1   force =     0.00000038    0.00000038    0.00000038
     atom    9 type  3   force =     0.00000000    0.00000000    0.00000000
     atom   10 type  3   force =     0.00000000    0.00000000    0.00000000
     atom   11 type  3   force =     0.00000000    0.00000000    0.00000000
     atom   12 type  3   force =     0.00000000    0.00000000    0.00000000
     atom   13 type  3   force =     0.00000000    0.00000000    0.00000000
     atom   14 type  3   force =     0.00000000    0.00000000    0.00000000
     atom   15 type  3   force =     0.00000000    0.00000000    0.00000000
     atom   16 type  3   force =     0.00000000    0.00000000    0.00000000
     atom   17 type  2   force =    -0.00000000    0.00000000   -0.00000595
     atom   18 type  2   force =     0.00000000    0.00000000    0.00000595
     atom   19 type  2   force =     0.00000000   -0.00000000   -0.00000542
     atom   20 type  2   force =     0.00000000    0.00000000    0.00000542
     atom   21 type  2   force =     0.00000000    0.00000000   -0.00000542
     atom   22 type  2   force =     0.00000000    0.00000000    0.00000542
     atom   23 type  2   force =    -0.00000000    0.00000000   -0.00000636
     atom   24 type  2   force =     0.00000000    0.00000000    0.00000636
     atom   25 type  2   force =     0.00000000   -0.00000595   -0.00000000
     atom   26 type  2   force =    -0.00000000   -0.00000542    0.00000000
     atom   27 type  2   force =     0.00000000    0.00000595    0.00000000
     atom   28 type  2   force =     0.00000000    0.00000542   -0.00000000
     atom   29 type  2   force =     0.00000000   -0.00000542    0.00000000
     atom   30 type  2   force =    -0.00000000   -0.00000636   -0.00000000
     atom   31 type  2   force =     0.00000000    0.00000542    0.00000000
     atom   32 type  2   force =     0.00000000    0.00000636    0.00000000
     atom   33 type  2   force =    -0.00000595    0.00000000    0.00000000
     atom   34 type  2   force =    -0.00000542    0.00000000    0.00000000
     atom   35 type  2   force =    -0.00000542    0.00000000    0.00000000
     atom   36 type  2   force =    -0.00000636    0.00000000    0.00000000
     atom   37 type  2   force =     0.00000595    0.00000000    0.00000000
     atom   38 type  2   force =     0.00000542    0.00000000    0.00000000
     atom   39 type  2   force =     0.00000542    0.00000000    0.00000000
     atom   40 type  2   force =     0.00000636    0.00000000    0.00000000
     The non-local contrib.  to forces
     atom    1 type  1   force =    -0.00000016   -0.00000016   -0.00000016
     atom    2 type  1   force =    -0.00000016   -0.00000016    0.00000016
     atom    3 type  1   force =    -0.00000016    0.00000016   -0.00000016
     atom    4 type  1   force =    -0.00000016    0.00000016    0.00000016
     atom    5 type  1   force =     0.00000016   -0.00000016   -0.00000016
     atom    6 type  1   force =     0.00000016   -0.00000016    0.00000016
     atom    7 type  1   force =     0.00000016    0.00000016   -0.00000016
     atom    8 type  1   force =     0.00000016    0.00000016    0.00000016
     atom    9 type  3   force =     0.00000000    0.00000000    0.00000000
     atom   10 type  3   force =     0.00000000    0.00000000    0.00000000
     atom   11 type  3   force =     0.00000000    0.00000000    0.00000000
     atom   12 type  3   force =     0.00000000    0.00000000    0.00000000
     atom   13 type  3   force =     0.00000000    0.00000000    0.00000000
     atom   14 type  3   force =     0.00000000    0.00000000    0.00000000
     atom   15 type  3   force =     0.00000000    0.00000000    0.00000000
     atom   16 type  3   force =     0.00000000    0.00000000    0.00000000
     atom   17 type  2   force =     0.00000000    0.00000000   -0.00000210
     atom   18 type  2   force =     0.00000000    0.00000000    0.00000210
     atom   19 type  2   force =     0.00000000    0.00000000   -0.00000043
     atom   20 type  2   force =     0.00000000    0.00000000    0.00000043
     atom   21 type  2   force =     0.00000000   -0.00000000   -0.00000043
     atom   22 type  2   force =     0.00000000    0.00000000    0.00000043
     atom   23 type  2   force =     0.00000000    0.00000000   -0.00000098
     atom   24 type  2   force =     0.00000000    0.00000000    0.00000098
     atom   25 type  2   force =     0.00000000   -0.00000210    0.00000000
     atom   26 type  2   force =     0.00000000   -0.00000043    0.00000000
     atom   27 type  2   force =     0.00000000    0.00000210    0.00000000
     atom   28 type  2   force =     0.00000000    0.00000043    0.00000000
     atom   29 type  2   force =     0.00000000   -0.00000043    0.00000000
     atom   30 type  2   force =     0.00000000   -0.00000098    0.00000000
     atom   31 type  2   force =     0.00000000    0.00000043    0.00000000
     atom   32 type  2   force =     0.00000000    0.00000098    0.00000000
     atom   33 type  2   force =    -0.00000210    0.00000000    0.00000000
     atom   34 type  2   force =    -0.00000043   -0.00000000    0.00000000
     atom   35 type  2   force =    -0.00000043    0.00000000    0.00000000
     atom   36 type  2   force =    -0.00000098    0.00000000    0.00000000
     atom   37 type  2   force =     0.00000210    0.00000000    0.00000000
     atom   38 type  2   force =     0.00000043    0.00000000    0.00000000
     atom   39 type  2   force =     0.00000043    0.00000000    0.00000000
     atom   40 type  2   force =     0.00000098    0.00000000    0.00000000
     The ionic contribution  to forces
     atom    1 type  1   force =    -0.00004935   -0.00004935   -0.00004935
     atom    2 type  1   force =    -0.00004935   -0.00004935    0.00004935
     atom    3 type  1   force =    -0.00004935    0.00004935   -0.00004935
     atom    4 type  1   force =    -0.00004935    0.00004935    0.00004935
     atom    5 type  1   force =     0.00004935   -0.00004935   -0.00004935
     atom    6 type  1   force =     0.00004935   -0.00004935    0.00004935
     atom    7 type  1   force =     0.00004935    0.00004935   -0.00004935
     atom    8 type  1   force =     0.00004935    0.00004935    0.00004935
     atom    9 type  3   force =    -0.00000000   -0.00000000   -0.00000000
     atom   10 type  3   force =     0.00000000    0.00000000    0.00000000
     atom   11 type  3   force =     0.00000000    0.00000000    0.00000000
     atom   12 type  3   force =    -0.00000000    0.00000000    0.00000000
     atom   13 type  3   force =     0.00000000    0.00000000    0.00000000
     atom   14 type  3   force =     0.00000000   -0.00000000    0.00000000
     atom   15 type  3   force =     0.00000000    0.00000000   -0.00000000
     atom   16 type  3   force =     0.00000000    0.00000000    0.00000000
     atom   17 type  2   force =    -0.00000000   -0.00000000   -0.00020855
     atom   18 type  2   force =    -0.00000000   -0.00000000    0.00020855
     atom   19 type  2   force =    -0.00000000    0.00000000   -0.00021075
     atom   20 type  2   force =    -0.00000000    0.00000000    0.00021075
     atom   21 type  2   force =     0.00000000   -0.00000000   -0.00021075
     atom   22 type  2   force =     0.00000000   -0.00000000    0.00021075
     atom   23 type  2   force =     0.00000000    0.00000000   -0.00021115
     atom   24 type  2   force =    -0.00000000   -0.00000000    0.00021115
     atom   25 type  2   force =    -0.00000000   -0.00020855   -0.00000000
     atom   26 type  2   force =    -0.00000000   -0.00021075    0.00000000
     atom   27 type  2   force =    -0.00000000    0.00020855   -0.00000000
     atom   28 type  2   force =    -0.00000000    0.00021075    0.00000000
     atom   29 type  2   force =     0.00000000   -0.00021075   -0.00000000
     atom   30 type  2   force =     0.00000000   -0.00021115    0.00000000
     atom   31 type  2   force =     0.00000000    0.00021075   -0.00000000
     atom   32 type  2   force =    -0.00000000    0.00021115   -0.00000000
     atom   33 type  2   force =    -0.00020855   -0.00000000   -0.00000000
     atom   34 type  2   force =    -0.00021075   -0.00000000    0.00000000
     atom   35 type  2   force =    -0.00021075    0.00000000   -0.00000000
     atom   36 type  2   force =    -0.00021115    0.00000000    0.00000000
     atom   37 type  2   force =     0.00020855   -0.00000000   -0.00000000
     atom   38 type  2   force =     0.00021075   -0.00000000    0.00000000
     atom   39 type  2   force =     0.00021075    0.00000000   -0.00000000
     atom   40 type  2   force =     0.00021115   -0.00000000   -0.00000000
     The local contribution  to forces
     atom    1 type  1   force =     0.00004157    0.00004157    0.00004157
     atom    2 type  1   force =     0.00004157    0.00004157   -0.00004157
     atom    3 type  1   force =     0.00004157   -0.00004157    0.00004157
     atom    4 type  1   force =     0.00004157   -0.00004157   -0.00004157
     atom    5 type  1   force =    -0.00004157    0.00004157    0.00004157
     atom    6 type  1   force =    -0.00004157    0.00004157   -0.00004157
     atom    7 type  1   force =    -0.00004157   -0.00004157    0.00004157
     atom    8 type  1   force =    -0.00004157   -0.00004157   -0.00004157
     atom    9 type  3   force =     0.00000000   -0.00000000    0.00000000
     atom   10 type  3   force =     0.00000000    0.00000000    0.00000000
     atom   11 type  3   force =     0.00000000    0.00000000    0.00000000
     atom   12 type  3   force =     0.00000000    0.00000000    0.00000000
     atom   13 type  3   force =     0.00000000    0.00000000    0.00000000
     atom   14 type  3   force =     0.00000000    0.00000000    0.00000000
     atom   15 type  3   force =     0.00000000    0.00000000    0.00000000
     atom   16 type  3   force =     0.00000000    0.00000000    0.00000000
     atom   17 type  2   force =     0.00000000   -0.00000000    0.00018895
     atom   18 type  2   force =    -0.00000000   -0.00000000   -0.00018895
     atom   19 type  2   force =     0.00000000   -0.00000000    0.00019858
     atom   20 type  2   force =     0.00000000    0.00000000   -0.00019858
     atom   21 type  2   force =     0.00000000    0.00000000    0.00019858
     atom   22 type  2   force =     0.00000000    0.00000000   -0.00019858
     atom   23 type  2   force =     0.00000000    0.00000000    0.00019346
     atom   24 type  2   force =    -0.00000000   -0.00000000   -0.00019346
     atom   25 type  2   force =     0.00000000    0.00018895   -0.00000000
     atom   26 type  2   force =     0.00000000    0.00019858    0.00000000
     atom   27 type  2   force =    -0.00000000   -0.00018895   -0.00000000
     atom   28 type  2   force =     0.00000000   -0.00019858    0.00000000
     atom   29 type  2   force =     0.00000000    0.00019858   -0.00000000
     atom   30 type  2   force =     0.00000000    0.00019346    0.00000000
     atom   31 type  2   force =     0.00000000   -0.00019858   -0.00000000
     atom   32 type  2   force =     0.00000000   -0.00019346   -0.00000000
     atom   33 type  2   force =     0.00018895   -0.00000000   -0.00000000
     atom   34 type  2   force =     0.00019858   -0.00000000    0.00000000
     atom   35 type  2   force =     0.00019858   -0.00000000   -0.00000000
     atom   36 type  2   force =     0.00019346    0.00000000    0.00000000
     atom   37 type  2   force =    -0.00018895   -0.00000000   -0.00000000
     atom   38 type  2   force =    -0.00019858   -0.00000000    0.00000000
     atom   39 type  2   force =    -0.00019858    0.00000000   -0.00000000
     atom   40 type  2   force =    -0.00019346    0.00000000    0.00000000
     The core correction contribution to forces
     atom    1 type  1   force =    -0.00000003   -0.00000003   -0.00000003
     atom    2 type  1   force =    -0.00000003   -0.00000003    0.00000003
     atom    3 type  1   force =    -0.00000003    0.00000003   -0.00000003
     atom    4 type  1   force =    -0.00000003    0.00000003    0.00000003
     atom    5 type  1   force =     0.00000003   -0.00000003   -0.00000003
     atom    6 type  1   force =     0.00000003   -0.00000003    0.00000003
     atom    7 type  1   force =     0.00000003    0.00000003   -0.00000003
     atom    8 type  1   force =     0.00000003    0.00000003    0.00000003
     atom    9 type  3   force =     0.00000000    0.00000000    0.00000000
     atom   10 type  3   force =    -0.00000000   -0.00000000    0.00000000
     atom   11 type  3   force =    -0.00000000    0.00000000   -0.00000000
     atom   12 type  3   force =     0.00000000   -0.00000000   -0.00000000
     atom   13 type  3   force =     0.00000000   -0.00000000   -0.00000000
     atom   14 type  3   force =    -0.00000000    0.00000000   -0.00000000
     atom   15 type  3   force =    -0.00000000   -0.00000000    0.00000000
     atom   16 type  3   force =     0.00000000    0.00000000    0.00000000
     atom   17 type  2   force =     0.00000000    0.00000000    0.00000063
     atom   18 type  2   force =     0.00000000    0.00000000   -0.00000063
     atom   19 type  2   force =     0.00000000   -0.00000000    0.00000060
     atom   20 type  2   force =     0.00000000   -0.00000000   -0.00000060
     atom   21 type  2   force =    -0.00000000    0.00000000    0.00000060
     atom   22 type  2   force =    -0.00000000    0.00000000   -0.00000060
     atom   23 type  2   force =    -0.00000000   -0.00000000   -0.00000022
     atom   24 type  2   force =     0.00000000    0.00000000    0.00000022
     atom   25 type  2   force =     0.00000000    0.00000063    0.00000000
     atom   26 type  2   force =     0.00000000    0.00000060   -0.00000000
     atom   27 type  2   force =     0.00000000   -0.00000063    0.00000000
     atom   28 type  2   force =     0.00000000   -0.00000060   -0.00000000
     atom   29 type  2   force =    -0.00000000    0.00000060    0.00000000
     atom   30 type  2   force =    -0.00000000   -0.00000022   -0.00000000
     atom   31 type  2   force =    -0.00000000   -0.00000060    0.00000000
     atom   32 type  2   force =     0.00000000    0.00000022    0.00000000
     atom   33 type  2   force =     0.00000063    0.00000000    0.00000000
     atom   34 type  2   force =     0.00000060    0.00000000   -0.00000000
     atom   35 type  2   force =     0.00000060   -0.00000000    0.00000000
     atom   36 type  2   force =    -0.00000022   -0.00000000   -0.00000000
     atom   37 type  2   force =    -0.00000063    0.00000000    0.00000000
     atom   38 type  2   force =    -0.00000060    0.00000000   -0.00000000
     atom   39 type  2   force =    -0.00000060   -0.00000000    0.00000000
     atom   40 type  2   force =     0.00000022    0.00000000    0.00000000
     The Hubbard contrib.    to forces
     atom    1 type  1   force =     0.00000000    0.00000000    0.00000000
     atom    2 type  1   force =     0.00000000    0.00000000    0.00000000
     atom    3 type  1   force =     0.00000000    0.00000000    0.00000000
     atom    4 type  1   force =     0.00000000    0.00000000    0.00000000
     atom    5 type  1   force =     0.00000000    0.00000000    0.00000000
     atom    6 type  1   force =     0.00000000    0.00000000    0.00000000
     atom    7 type  1   force =     0.00000000    0.00000000    0.00000000
     atom    8 type  1   force =     0.00000000    0.00000000    0.00000000
     atom    9 type  3   force =     0.00000000    0.00000000    0.00000000
     atom   10 type  3   force =     0.00000000    0.00000000    0.00000000
     atom   11 type  3   force =     0.00000000    0.00000000    0.00000000
     atom   12 type  3   force =     0.00000000    0.00000000    0.00000000
     atom   13 type  3   force =     0.00000000    0.00000000    0.00000000
     atom   14 type  3   force =     0.00000000    0.00000000    0.00000000
     atom   15 type  3   force =     0.00000000    0.00000000    0.00000000
     atom   16 type  3   force =     0.00000000    0.00000000    0.00000000
     atom   17 type  2   force =     0.00000000    0.00000000    0.00000000
     atom   18 type  2   force =     0.00000000    0.00000000    0.00000000
     atom   19 type  2   force =     0.00000000    0.00000000    0.00000000
     atom   20 type  2   force =     0.00000000    0.00000000    0.00000000
     atom   21 type  2   force =     0.00000000    0.00000000    0.00000000
     atom   22 type  2   force =     0.00000000    0.00000000    0.00000000
     atom   23 type  2   force =     0.00000000    0.00000000    0.00000000
     atom   24 type  2   force =     0.00000000    0.00000000    0.00000000
     atom   25 type  2   force =     0.00000000    0.00000000    0.00000000
     atom   26 type  2   force =     0.00000000    0.00000000    0.00000000
     atom   27 type  2   force =     0.00000000    0.00000000    0.00000000
     atom   28 type  2   force =     0.00000000    0.00000000    0.00000000
     atom   29 type  2   force =     0.00000000    0.00000000    0.00000000
     atom   30 type  2   force =     0.00000000    0.00000000    0.00000000
     atom   31 type  2   force =     0.00000000    0.00000000    0.00000000
     atom   32 type  2   force =     0.00000000    0.00000000    0.00000000
     atom   33 type  2   force =     0.00000000    0.00000000    0.00000000
     atom   34 type  2   force =     0.00000000    0.00000000    0.00000000
     atom   35 type  2   force =     0.00000000    0.00000000    0.00000000
     atom   36 type  2   force =     0.00000000    0.00000000    0.00000000
     atom   37 type  2   force =     0.00000000    0.00000000    0.00000000
     atom   38 type  2   force =     0.00000000    0.00000000    0.00000000
     atom   39 type  2   force =     0.00000000    0.00000000    0.00000000
     atom   40 type  2   force =     0.00000000    0.00000000    0.00000000
     The SCF correction term to forces
     atom    1 type  1   force =     0.00000759    0.00000759    0.00000759
     atom    2 type  1   force =     0.00000759    0.00000759   -0.00000759
     atom    3 type  1   force =     0.00000759   -0.00000759    0.00000759
     atom    4 type  1   force =     0.00000759   -0.00000759   -0.00000759
     atom    5 type  1   force =    -0.00000759    0.00000759    0.00000759
     atom    6 type  1   force =    -0.00000759    0.00000759   -0.00000759
     atom    7 type  1   force =    -0.00000759   -0.00000759    0.00000759
     atom    8 type  1   force =    -0.00000759   -0.00000759   -0.00000759
     atom    9 type  3   force =    -0.00000000    0.00000000   -0.00000000
     atom   10 type  3   force =    -0.00000000    0.00000000   -0.00000000
     atom   11 type  3   force =    -0.00000000    0.00000000   -0.00000000
     atom   12 type  3   force =    -0.00000000    0.00000000    0.00000000
     atom   13 type  3   force =     0.00000000    0.00000000   -0.00000000
     atom   14 type  3   force =     0.00000000   -0.00000000    0.00000000
     atom   15 type  3   force =     0.00000000    0.00000000    0.00000000
     atom   16 type  3   force =     0.00000000    0.00000000   -0.00000000
     atom   17 type  2   force =    -0.00000000    0.00000000    0.00001513
     atom   18 type  2   force =    -0.00000000    0.00000000   -0.00001513
     atom   19 type  2   force =     0.00000000   -0.00000000    0.00000658
     atom   20 type  2   force =     0.00000000   -0.00000000   -0.00000658
     atom   21 type  2   force =     0.00000000    0.00000000    0.00000658
     atom   22 type  2   force =     0.00000000    0.00000000   -0.00000658
     atom   23 type  2   force =    -0.00000000    0.00000000    0.00001253
     atom   24 type  2   force =    -0.00000000    0.00000000   -0.00001253
     atom   25 type  2   force =     0.00000000    0.00001513   -0.00000000
     atom   26 type  2   force =     0.00000000    0.00000658   -0.00000000
     atom   27 type  2   force =    -0.00000000   -0.00001513   -0.00000000
     atom   28 type  2   force =    -0.00000000   -0.00000658   -0.00000000
     atom   29 type  2   force =    -0.00000000    0.00000658   -0.00000000
     atom   30 type  2   force =    -0.00000000    0.00001253   -0.00000000
     atom   31 type  2   force =    -0.00000000   -0.00000658   -0.00000000
     atom   32 type  2   force =    -0.00000000   -0.00001253    0.00000000
     atom   33 type  2   force =     0.00001513    0.00000000    0.00000000
     atom   34 type  2   force =     0.00000658    0.00000000   -0.00000000
     atom   35 type  2   force =     0.00000658   -0.00000000    0.00000000
     atom   36 type  2   force =     0.00001253   -0.00000000   -0.00000000
     atom   37 type  2   force =    -0.00001513    0.00000000   -0.00000000
     atom   38 type  2   force =    -0.00000658    0.00000000   -0.00000000
     atom   39 type  2   force =    -0.00000658   -0.00000000   -0.00000000
     atom   40 type  2   force =    -0.00001253   -0.00000000    0.00000000

     Total force =     0.000028     Total SCF correction =     0.000065
     SCF correction compared to forces is large: reduce conv_thr to get better values


     Computing stress (Cartesian axis) and pressure

          total   stress  (Ry/bohr**3)                   (kbar)     P=       -0.14
  -0.00000098   0.00000000   0.00000000           -0.14        0.00        0.00
   0.00000000  -0.00000098   0.00000000            0.00       -0.14        0.00
   0.00000000   0.00000000  -0.00000098            0.00        0.00       -0.14

     kinetic stress (kbar)   3469.14      0.00      0.00
                                0.00   3469.14      0.00
                                0.00      0.00   3469.14

     local   stress (kbar)   -368.89     -0.00     -0.00
                               -0.00   -368.89     -0.00
                               -0.00     -0.00   -368.89

     nonloc. stress (kbar)    871.43      0.00      0.00
                                0.00    871.43      0.00
                                0.00      0.00    871.43

     hartree stress (kbar)   1922.70     -0.00      0.00
                               -0.00   1922.70      0.00
                                0.00      0.00   1922.70

     exc-cor stress (kbar)  12008.13      0.00      0.00
                                0.00  12008.13     -0.00
                                0.00     -0.00  12008.13

     corecor stress (kbar) -13606.63     -0.00      0.00
                               -0.00 -13606.63     -0.00
                               -0.00     -0.00 -13606.63

     ewald   stress (kbar)  -4296.03     -0.00      0.00
                               -0.00  -4296.03     -0.00
                                0.00     -0.00  -4296.03

     hubbard stress (kbar)      0.00      0.00      0.00
                                0.00      0.00      0.00
                                0.00      0.00      0.00

     DFT-D   stress (kbar)      0.00      0.00      0.00
                                0.00      0.00      0.00
                                0.00      0.00      0.00

     XDM     stress (kbar)      0.00      0.00      0.00
                                0.00      0.00      0.00
                                0.00      0.00      0.00

     dft-nl  stress (kbar)      0.00      0.00      0.00
                                0.00      0.00      0.00
                                0.00      0.00      0.00

     TS-vdW  stress (kbar)      0.00      0.00      0.00
                                0.00      0.00      0.00
                                0.00      0.00      0.00



     Writing output data file ../../out/aiida.save/

     init_run     :    189.03s CPU    192.02s WALL (       1 calls)
     electrons    :   5920.89s CPU   5978.79s WALL (       1 calls)
     forces       :    136.06s CPU    138.81s WALL (       1 calls)
     stress       :    209.40s CPU    216.86s WALL (       1 calls)

     Called by init_run:
     wfcinit      :    167.46s CPU    167.98s WALL (       1 calls)
     wfcinit:atom :      0.26s CPU      0.38s WALL (       4 calls)
     wfcinit:wfcr :    165.38s CPU    165.58s WALL (       4 calls)
     potinit      :      4.16s CPU      4.37s WALL (       1 calls)
     hinit0       :      1.68s CPU      1.74s WALL (       1 calls)

     Called by electrons:
     c_bands      :   5175.97s CPU   5184.77s WALL (      11 calls)
     sum_band     :    564.59s CPU    591.09s WALL (      11 calls)
     v_of_rho     :     17.60s CPU     19.23s WALL (      11 calls)
     v_h          :      1.12s CPU      1.15s WALL (      11 calls)
     v_xc         :     19.48s CPU     21.36s WALL (      13 calls)
     newd         :    155.25s CPU    178.50s WALL (      11 calls)
     PAW_pot      :     22.58s CPU     22.58s WALL (      11 calls)
     mix_rho      :      2.15s CPU      2.16s WALL (      11 calls)

     Called by c_bands:
     init_us_2    :      6.20s CPU      6.26s WALL (     100 calls)
     cegterg      :   5145.53s CPU   5154.29s WALL (      44 calls)

     Called by sum_band:
     sum_band:wei :      0.01s CPU      0.01s WALL (      11 calls)
     sum_band:loo :    337.95s CPU    338.07s WALL (      11 calls)
     sum_band:buf :      0.92s CPU      0.92s WALL (      44 calls)
     sum_band:ini :      2.72s CPU      2.72s WALL (      44 calls)
     sum_band:cal :    251.79s CPU    251.82s WALL (      44 calls)
     sum_band:bec :      0.13s CPU      0.13s WALL (      44 calls)
     addusdens    :    224.36s CPU    250.74s WALL (      11 calls)
     addusd:skk   :      2.55s CPU      4.47s WALL (      33 calls)
     addusd:dgemm :    154.38s CPU    174.51s WALL (      33 calls)
     addusd:qvan2 :     62.45s CPU     62.46s WALL (      33 calls)

     Called by *egterg:
     cdiaghg      :     54.39s CPU     54.40s WALL (     316 calls)
     cegterg:over :    695.29s CPU    695.38s WALL (     276 calls)
     cegterg:upda :    438.76s CPU    440.09s WALL (     276 calls)
     cegterg:last :   1100.92s CPU   1101.06s WALL (     102 calls)
     h_psi        :   1950.89s CPU   1953.78s WALL (     324 calls)
     s_psi        :    786.10s CPU    786.20s WALL (     324 calls)
     g_psi        :      7.37s CPU      7.37s WALL (     276 calls)

     Called by h_psi:
     h_psi:calbec :    728.61s CPU    728.72s WALL (     324 calls)
     vloc_psi     :    432.89s CPU    433.39s WALL (     324 calls)
     add_vuspsi   :    786.64s CPU    786.75s WALL (     324 calls)

     General routines
     calbec       :   1092.22s CPU   1092.36s WALL (     388 calls)
     fft          :     11.82s CPU     11.82s WALL (     167 calls)
     ffts         :      0.23s CPU      0.23s WALL (      22 calls)
     fftw         :    442.48s CPU    442.93s WALL (   62732 calls)
     interpolate  :      1.07s CPU      1.07s WALL (      11 calls)

     Parallel routines

     PAW routines
     PAW_pot      :     22.58s CPU     22.58s WALL (      11 calls)
     PAW_symme    :      0.05s CPU      0.05s WALL (      22 calls)

     PWSCF        :      1h47m CPU      1h48m WALL


   This run was terminated on:  19:26:50   1Apr2024            

=------------------------------------------------------------------------------=
   JOB DONE.
=------------------------------------------------------------------------------=
