### Running on host: fes33

     Program PWSCF v.6.7MaX starts on  1Apr2024 at 19:26:50 

     This program is part of the open-source Quantum ESPRESSO suite
     for quantum simulation of materials; please cite
         "P. Giannozzi et al., J. Phys.:Condens. Matter 21 395502 (2009);
         "P. Giannozzi et al., J. Phys.:Condens. Matter 29 465901 (2017);
          URL http://www.quantum-espresso.org", 
     in publications or presentations arising from this work. More details at
     http://www.quantum-espresso.org/quote

     Parallel version (MPI), running on     1 processors

     MPI processes distributed on     1 nodes
     Reading input from pwscf_ecutwfc-32.in

     Current dimensions of program PWSCF are:
     Max number of different atomic species (ntypx) = 10
     Max number of k-points (npk) =  40000
     Max angular momentum in pseudopotentials (lmaxx) =  3
     file Pb.pbe-dn-kjpaw_psl.0.2.2.UPF: wavefunction(s)  6S renormalized

     Subspace diagonalization in iterative solution of the eigenvalue problem:
     a serial algorithm will be used

     Found symmetry operation: I + (  0.0000  0.0000  0.5000)
     This is a supercell, fractional translations are disabled
     Message from routine setup:
     using ibrav=0 with symmetry is DISCOURAGED, use correct ibrav instead

     G-vector sticks info
     --------------------
     sticks:   dense  smooth     PW     G-vecs:    dense   smooth      PW
     Sum       14817    5949   1565              1356433   343539   46297



     bravais-lattice index     =            0
     lattice parameter (alat)  =      24.1188  a.u.
     unit-cell volume          =   14030.3801 (a.u.)^3
     number of atoms/cell      =           40
     number of atomic types    =            3
     number of electrons       =       352.00
     number of Kohn-Sham states=          211
     kinetic-energy cutoff     =      32.0000  Ry
     charge density cutoff     =     320.0000  Ry
     scf convergence threshold =      8.0E-09
     mixing beta               =       0.4000
     number of iterations used =            8  plain     mixing
     Exchange-correlation= SLA  PW   PBX  PBC
                           (   1   4   3   4   0   0   0)

     celldm(1)=  24.118843  celldm(2)=   0.000000  celldm(3)=   0.000000
     celldm(4)=   0.000000  celldm(5)=   0.000000  celldm(6)=   0.000000

     crystal axes: (cart. coord. in units of alat)
               a(1) = (   1.000000   0.000000   0.000000 )  
               a(2) = (   0.000000   1.000000   0.000000 )  
               a(3) = (   0.000000   0.000000   1.000000 )  

     reciprocal axes: (cart. coord. in units 2 pi/alat)
               b(1) = (  1.000000  0.000000  0.000000 )  
               b(2) = (  0.000000  1.000000  0.000000 )  
               b(3) = (  0.000000  0.000000  1.000000 )  


     PseudoPot. # 1 for Cs read from file:
     ../../pseudo/Cs_pbe_v1.uspp.F.UPF
     MD5 check sum: 3476d69cb178dfad3ffaa59df4e07ca4
     Pseudo is Ultrasoft + core correction, Zval =  9.0
     Generated by new atomic code, or converted to UPF format
     Using radial grid of  905 points,  6 beta functions with: 
                l(1) =   0
                l(2) =   0
                l(3) =   1
                l(4) =   1
                l(5) =   2
                l(6) =   2
     Q(r) pseudized with  6 coefficients,  rinner =    1.500   1.500   1.500
                                                       1.500   1.500

     PseudoPot. # 2 for I  read from file:
     ../../pseudo/I.pbe-n-kjpaw_psl.0.2.UPF
     MD5 check sum: d4ef18d9c8f18dc85e5843bca1e50dc0
     Pseudo is Projector augmented-wave + core cor, Zval =  7.0
     Generated using "atomic" code by A. Dal Corso  v.5.0.99 svn rev. 10869
     Shape of augmentation charge: PSQ
     Using radial grid of 1247 points,  4 beta functions with: 
                l(1) =   0
                l(2) =   0
                l(3) =   1
                l(4) =   1
     Q(r) pseudized with 0 coefficients 


     PseudoPot. # 3 for Pb read from file:
     ../../pseudo/Pb.pbe-dn-kjpaw_psl.0.2.2.UPF
     MD5 check sum: 9d431e6316058b74ade52399a6cf67da
     Pseudo is Projector augmented-wave + core cor, Zval = 14.0
     Generated using "atomic" code by A. Dal Corso  v.5.0.99 svn rev. 10869
     Shape of augmentation charge: PSQ
     Using radial grid of 1281 points,  6 beta functions with: 
                l(1) =   0
                l(2) =   0
                l(3) =   1
                l(4) =   1
                l(5) =   2
                l(6) =   2
     Q(r) pseudized with 0 coefficients 


     atomic species   valence    mass     pseudopotential
        Cs             9.00   132.90545     Cs( 1.00)
        I              7.00   126.90447     I ( 1.00)
        Pb            14.00   207.20000     Pb( 1.00)

     48 Sym. Ops., with inversion, found


                                    s                        frac. trans.

      isym =  1     identity                                     

 cryst.   s( 1) = (     1          0          0      )
                  (     0          1          0      )
                  (     0          0          1      )

 cart.    s( 1) = (  1.0000000  0.0000000  0.0000000 )
                  (  0.0000000  1.0000000  0.0000000 )
                  (  0.0000000  0.0000000  1.0000000 )


      isym =  2     180 deg rotation - cart. axis [0,0,1]        

 cryst.   s( 2) = (    -1          0          0      )
                  (     0         -1          0      )
                  (     0          0          1      )

 cart.    s( 2) = ( -1.0000000  0.0000000  0.0000000 )
                  (  0.0000000 -1.0000000  0.0000000 )
                  (  0.0000000  0.0000000  1.0000000 )


      isym =  3     180 deg rotation - cart. axis [0,1,0]        

 cryst.   s( 3) = (    -1          0          0      )
                  (     0          1          0      )
                  (     0          0         -1      )

 cart.    s( 3) = ( -1.0000000  0.0000000  0.0000000 )
                  (  0.0000000  1.0000000  0.0000000 )
                  (  0.0000000  0.0000000 -1.0000000 )


      isym =  4     180 deg rotation - cart. axis [1,0,0]        

 cryst.   s( 4) = (     1          0          0      )
                  (     0         -1          0      )
                  (     0          0         -1      )

 cart.    s( 4) = (  1.0000000  0.0000000  0.0000000 )
                  (  0.0000000 -1.0000000  0.0000000 )
                  (  0.0000000  0.0000000 -1.0000000 )


      isym =  5     180 deg rotation - cart. axis [1,1,0]        

 cryst.   s( 5) = (     0          1          0      )
                  (     1          0          0      )
                  (     0          0         -1      )

 cart.    s( 5) = (  0.0000000  1.0000000  0.0000000 )
                  (  1.0000000  0.0000000  0.0000000 )
                  (  0.0000000  0.0000000 -1.0000000 )


      isym =  6     180 deg rotation - cart. axis [1,-1,0]       

 cryst.   s( 6) = (     0         -1          0      )
                  (    -1          0          0      )
                  (     0          0         -1      )

 cart.    s( 6) = (  0.0000000 -1.0000000  0.0000000 )
                  ( -1.0000000  0.0000000  0.0000000 )
                  (  0.0000000  0.0000000 -1.0000000 )


      isym =  7      90 deg rotation - cart. axis [0,0,-1]       

 cryst.   s( 7) = (     0         -1          0      )
                  (     1          0          0      )
                  (     0          0          1      )

 cart.    s( 7) = (  0.0000000  1.0000000  0.0000000 )
                  ( -1.0000000  0.0000000  0.0000000 )
                  (  0.0000000  0.0000000  1.0000000 )


      isym =  8      90 deg rotation - cart. axis [0,0,1]        

 cryst.   s( 8) = (     0          1          0      )
                  (    -1          0          0      )
                  (     0          0          1      )

 cart.    s( 8) = (  0.0000000 -1.0000000  0.0000000 )
                  (  1.0000000  0.0000000  0.0000000 )
                  (  0.0000000  0.0000000  1.0000000 )


      isym =  9     180 deg rotation - cart. axis [1,0,1]        

 cryst.   s( 9) = (     0          0          1      )
                  (     0         -1          0      )
                  (     1          0          0      )

 cart.    s( 9) = (  0.0000000  0.0000000  1.0000000 )
                  (  0.0000000 -1.0000000  0.0000000 )
                  (  1.0000000  0.0000000  0.0000000 )


      isym = 10     180 deg rotation - cart. axis [-1,0,1]       

 cryst.   s(10) = (     0          0         -1      )
                  (     0         -1          0      )
                  (    -1          0          0      )

 cart.    s(10) = (  0.0000000  0.0000000 -1.0000000 )
                  (  0.0000000 -1.0000000  0.0000000 )
                  ( -1.0000000  0.0000000  0.0000000 )


      isym = 11      90 deg rotation - cart. axis [0,1,0]        

 cryst.   s(11) = (     0          0         -1      )
                  (     0          1          0      )
                  (     1          0          0      )

 cart.    s(11) = (  0.0000000  0.0000000  1.0000000 )
                  (  0.0000000  1.0000000  0.0000000 )
                  ( -1.0000000  0.0000000  0.0000000 )


      isym = 12      90 deg rotation - cart. axis [0,-1,0]       

 cryst.   s(12) = (     0          0          1      )
                  (     0          1          0      )
                  (    -1          0          0      )

 cart.    s(12) = (  0.0000000  0.0000000 -1.0000000 )
                  (  0.0000000  1.0000000  0.0000000 )
                  (  1.0000000  0.0000000  0.0000000 )


      isym = 13     180 deg rotation - cart. axis [0,1,1]        

 cryst.   s(13) = (    -1          0          0      )
                  (     0          0          1      )
                  (     0          1          0      )

 cart.    s(13) = ( -1.0000000  0.0000000  0.0000000 )
                  (  0.0000000  0.0000000  1.0000000 )
                  (  0.0000000  1.0000000  0.0000000 )


      isym = 14     180 deg rotation - cart. axis [0,1,-1]       

 cryst.   s(14) = (    -1          0          0      )
                  (     0          0         -1      )
                  (     0         -1          0      )

 cart.    s(14) = ( -1.0000000  0.0000000  0.0000000 )
                  (  0.0000000  0.0000000 -1.0000000 )
                  (  0.0000000 -1.0000000  0.0000000 )


      isym = 15      90 deg rotation - cart. axis [-1,0,0]       

 cryst.   s(15) = (     1          0          0      )
                  (     0          0         -1      )
                  (     0          1          0      )

 cart.    s(15) = (  1.0000000  0.0000000  0.0000000 )
                  (  0.0000000  0.0000000  1.0000000 )
                  (  0.0000000 -1.0000000  0.0000000 )


      isym = 16      90 deg rotation - cart. axis [1,0,0]        

 cryst.   s(16) = (     1          0          0      )
                  (     0          0          1      )
                  (     0         -1          0      )

 cart.    s(16) = (  1.0000000  0.0000000  0.0000000 )
                  (  0.0000000  0.0000000 -1.0000000 )
                  (  0.0000000  1.0000000  0.0000000 )


      isym = 17     120 deg rotation - cart. axis [-1,-1,-1]     

 cryst.   s(17) = (     0          0          1      )
                  (     1          0          0      )
                  (     0          1          0      )

 cart.    s(17) = (  0.0000000  1.0000000  0.0000000 )
                  (  0.0000000  0.0000000  1.0000000 )
                  (  1.0000000  0.0000000  0.0000000 )


      isym = 18     120 deg rotation - cart. axis [-1,1,1]       

 cryst.   s(18) = (     0          0         -1      )
                  (    -1          0          0      )
                  (     0          1          0      )

 cart.    s(18) = (  0.0000000 -1.0000000  0.0000000 )
                  (  0.0000000  0.0000000  1.0000000 )
                  ( -1.0000000  0.0000000  0.0000000 )


      isym = 19     120 deg rotation - cart. axis [1,1,-1]       

 cryst.   s(19) = (     0          0         -1      )
                  (     1          0          0      )
                  (     0         -1          0      )

 cart.    s(19) = (  0.0000000  1.0000000  0.0000000 )
                  (  0.0000000  0.0000000 -1.0000000 )
                  ( -1.0000000  0.0000000  0.0000000 )


      isym = 20     120 deg rotation - cart. axis [1,-1,1]       

 cryst.   s(20) = (     0          0          1      )
                  (    -1          0          0      )
                  (     0         -1          0      )

 cart.    s(20) = (  0.0000000 -1.0000000  0.0000000 )
                  (  0.0000000  0.0000000 -1.0000000 )
                  (  1.0000000  0.0000000  0.0000000 )


      isym = 21     120 deg rotation - cart. axis [1,1,1]        

 cryst.   s(21) = (     0          1          0      )
                  (     0          0          1      )
                  (     1          0          0      )

 cart.    s(21) = (  0.0000000  0.0000000  1.0000000 )
                  (  1.0000000  0.0000000  0.0000000 )
                  (  0.0000000  1.0000000  0.0000000 )


      isym = 22     120 deg rotation - cart. axis [-1,1,-1]      

 cryst.   s(22) = (     0         -1          0      )
                  (     0          0         -1      )
                  (     1          0          0      )

 cart.    s(22) = (  0.0000000  0.0000000  1.0000000 )
                  ( -1.0000000  0.0000000  0.0000000 )
                  (  0.0000000 -1.0000000  0.0000000 )


      isym = 23     120 deg rotation - cart. axis [1,-1,-1]      

 cryst.   s(23) = (     0         -1          0      )
                  (     0          0          1      )
                  (    -1          0          0      )

 cart.    s(23) = (  0.0000000  0.0000000 -1.0000000 )
                  ( -1.0000000  0.0000000  0.0000000 )
                  (  0.0000000  1.0000000  0.0000000 )


      isym = 24     120 deg rotation - cart. axis [-1,-1,1]      

 cryst.   s(24) = (     0          1          0      )
                  (     0          0         -1      )
                  (    -1          0          0      )

 cart.    s(24) = (  0.0000000  0.0000000 -1.0000000 )
                  (  1.0000000  0.0000000  0.0000000 )
                  (  0.0000000 -1.0000000  0.0000000 )


      isym = 25     inversion                                    

 cryst.   s(25) = (    -1          0          0      )
                  (     0         -1          0      )
                  (     0          0         -1      )

 cart.    s(25) = ( -1.0000000  0.0000000  0.0000000 )
                  (  0.0000000 -1.0000000  0.0000000 )
                  (  0.0000000  0.0000000 -1.0000000 )


      isym = 26     inv. 180 deg rotation - cart. axis [0,0,1]   

 cryst.   s(26) = (     1          0          0      )
                  (     0          1          0      )
                  (     0          0         -1      )

 cart.    s(26) = (  1.0000000  0.0000000  0.0000000 )
                  (  0.0000000  1.0000000  0.0000000 )
                  (  0.0000000  0.0000000 -1.0000000 )


      isym = 27     inv. 180 deg rotation - cart. axis [0,1,0]   

 cryst.   s(27) = (     1          0          0      )
                  (     0         -1          0      )
                  (     0          0          1      )

 cart.    s(27) = (  1.0000000  0.0000000  0.0000000 )
                  (  0.0000000 -1.0000000  0.0000000 )
                  (  0.0000000  0.0000000  1.0000000 )


      isym = 28     inv. 180 deg rotation - cart. axis [1,0,0]   

 cryst.   s(28) = (    -1          0          0      )
                  (     0          1          0      )
                  (     0          0          1      )

 cart.    s(28) = ( -1.0000000  0.0000000  0.0000000 )
                  (  0.0000000  1.0000000  0.0000000 )
                  (  0.0000000  0.0000000  1.0000000 )


      isym = 29     inv. 180 deg rotation - cart. axis [1,1,0]   

 cryst.   s(29) = (     0         -1          0      )
                  (    -1          0          0      )
                  (     0          0          1      )

 cart.    s(29) = (  0.0000000 -1.0000000  0.0000000 )
                  ( -1.0000000  0.0000000  0.0000000 )
                  (  0.0000000  0.0000000  1.0000000 )


      isym = 30     inv. 180 deg rotation - cart. axis [1,-1,0]  

 cryst.   s(30) = (     0          1          0      )
                  (     1          0          0      )
                  (     0          0          1      )

 cart.    s(30) = (  0.0000000  1.0000000  0.0000000 )
                  (  1.0000000  0.0000000  0.0000000 )
                  (  0.0000000  0.0000000  1.0000000 )


      isym = 31     inv.  90 deg rotation - cart. axis [0,0,-1]  

 cryst.   s(31) = (     0          1          0      )
                  (    -1          0          0      )
                  (     0          0         -1      )

 cart.    s(31) = (  0.0000000 -1.0000000  0.0000000 )
                  (  1.0000000  0.0000000  0.0000000 )
                  (  0.0000000  0.0000000 -1.0000000 )


      isym = 32     inv.  90 deg rotation - cart. axis [0,0,1]   

 cryst.   s(32) = (     0         -1          0      )
                  (     1          0          0      )
                  (     0          0         -1      )

 cart.    s(32) = (  0.0000000  1.0000000  0.0000000 )
                  ( -1.0000000  0.0000000  0.0000000 )
                  (  0.0000000  0.0000000 -1.0000000 )


      isym = 33     inv. 180 deg rotation - cart. axis [1,0,1]   

 cryst.   s(33) = (     0          0         -1      )
                  (     0          1          0      )
                  (    -1          0          0      )

 cart.    s(33) = (  0.0000000  0.0000000 -1.0000000 )
                  (  0.0000000  1.0000000  0.0000000 )
                  ( -1.0000000  0.0000000  0.0000000 )


      isym = 34     inv. 180 deg rotation - cart. axis [-1,0,1]  

 cryst.   s(34) = (     0          0          1      )
                  (     0          1          0      )
                  (     1          0          0      )

 cart.    s(34) = (  0.0000000  0.0000000  1.0000000 )
                  (  0.0000000  1.0000000  0.0000000 )
                  (  1.0000000  0.0000000  0.0000000 )


      isym = 35     inv.  90 deg rotation - cart. axis [0,1,0]   

 cryst.   s(35) = (     0          0          1      )
                  (     0         -1          0      )
                  (    -1          0          0      )

 cart.    s(35) = (  0.0000000  0.0000000 -1.0000000 )
                  (  0.0000000 -1.0000000  0.0000000 )
                  (  1.0000000  0.0000000  0.0000000 )


      isym = 36     inv.  90 deg rotation - cart. axis [0,-1,0]  

 cryst.   s(36) = (     0          0         -1      )
                  (     0         -1          0      )
                  (     1          0          0      )

 cart.    s(36) = (  0.0000000  0.0000000  1.0000000 )
                  (  0.0000000 -1.0000000  0.0000000 )
                  ( -1.0000000  0.0000000  0.0000000 )


      isym = 37     inv. 180 deg rotation - cart. axis [0,1,1]   

 cryst.   s(37) = (     1          0          0      )
                  (     0          0         -1      )
                  (     0         -1          0      )

 cart.    s(37) = (  1.0000000  0.0000000  0.0000000 )
                  (  0.0000000  0.0000000 -1.0000000 )
                  (  0.0000000 -1.0000000  0.0000000 )


      isym = 38     inv. 180 deg rotation - cart. axis [0,1,-1]  

 cryst.   s(38) = (     1          0          0      )
                  (     0          0          1      )
                  (     0          1          0      )

 cart.    s(38) = (  1.0000000  0.0000000  0.0000000 )
                  (  0.0000000  0.0000000  1.0000000 )
                  (  0.0000000  1.0000000  0.0000000 )


      isym = 39     inv.  90 deg rotation - cart. axis [-1,0,0]  

 cryst.   s(39) = (    -1          0          0      )
                  (     0          0          1      )
                  (     0         -1          0      )

 cart.    s(39) = ( -1.0000000  0.0000000  0.0000000 )
                  (  0.0000000  0.0000000 -1.0000000 )
                  (  0.0000000  1.0000000  0.0000000 )


      isym = 40     inv.  90 deg rotation - cart. axis [1,0,0]   

 cryst.   s(40) = (    -1          0          0      )
                  (     0          0         -1      )
                  (     0          1          0      )

 cart.    s(40) = ( -1.0000000  0.0000000  0.0000000 )
                  (  0.0000000  0.0000000  1.0000000 )
                  (  0.0000000 -1.0000000  0.0000000 )


      isym = 41     inv. 120 deg rotation - cart. axis [-1,-1,-1]

 cryst.   s(41) = (     0          0         -1      )
                  (    -1          0          0      )
                  (     0         -1          0      )

 cart.    s(41) = (  0.0000000 -1.0000000  0.0000000 )
                  (  0.0000000  0.0000000 -1.0000000 )
                  ( -1.0000000  0.0000000  0.0000000 )


      isym = 42     inv. 120 deg rotation - cart. axis [-1,1,1]  

 cryst.   s(42) = (     0          0          1      )
                  (     1          0          0      )
                  (     0         -1          0      )

 cart.    s(42) = (  0.0000000  1.0000000  0.0000000 )
                  (  0.0000000  0.0000000 -1.0000000 )
                  (  1.0000000  0.0000000  0.0000000 )


      isym = 43     inv. 120 deg rotation - cart. axis [1,1,-1]  

 cryst.   s(43) = (     0          0          1      )
                  (    -1          0          0      )
                  (     0          1          0      )

 cart.    s(43) = (  0.0000000 -1.0000000  0.0000000 )
                  (  0.0000000  0.0000000  1.0000000 )
                  (  1.0000000  0.0000000  0.0000000 )


      isym = 44     inv. 120 deg rotation - cart. axis [1,-1,1]  

 cryst.   s(44) = (     0          0         -1      )
                  (     1          0          0      )
                  (     0          1          0      )

 cart.    s(44) = (  0.0000000  1.0000000  0.0000000 )
                  (  0.0000000  0.0000000  1.0000000 )
                  ( -1.0000000  0.0000000  0.0000000 )


      isym = 45     inv. 120 deg rotation - cart. axis [1,1,1]   

 cryst.   s(45) = (     0         -1          0      )
                  (     0          0         -1      )
                  (    -1          0          0      )

 cart.    s(45) = (  0.0000000  0.0000000 -1.0000000 )
                  ( -1.0000000  0.0000000  0.0000000 )
                  (  0.0000000 -1.0000000  0.0000000 )


      isym = 46     inv. 120 deg rotation - cart. axis [-1,1,-1] 

 cryst.   s(46) = (     0          1          0      )
                  (     0          0          1      )
                  (    -1          0          0      )

 cart.    s(46) = (  0.0000000  0.0000000 -1.0000000 )
                  (  1.0000000  0.0000000  0.0000000 )
                  (  0.0000000  1.0000000  0.0000000 )


      isym = 47     inv. 120 deg rotation - cart. axis [1,-1,-1] 

 cryst.   s(47) = (     0          1          0      )
                  (     0          0         -1      )
                  (     1          0          0      )

 cart.    s(47) = (  0.0000000  0.0000000  1.0000000 )
                  (  1.0000000  0.0000000  0.0000000 )
                  (  0.0000000 -1.0000000  0.0000000 )


      isym = 48     inv. 120 deg rotation - cart. axis [-1,-1,1] 

 cryst.   s(48) = (     0         -1          0      )
                  (     0          0          1      )
                  (     1          0          0      )

 cart.    s(48) = (  0.0000000  0.0000000  1.0000000 )
                  ( -1.0000000  0.0000000  0.0000000 )
                  (  0.0000000  1.0000000  0.0000000 )


   Cartesian axes

     site n.     atom                  positions (alat units)
         1           Cs  tau(   1) = (   0.2500001   0.2500001   0.2500001  )
         2           Cs  tau(   2) = (   0.2500001   0.2500001   0.7499999  )
         3           Cs  tau(   3) = (   0.2500001   0.7499999   0.2500001  )
         4           Cs  tau(   4) = (   0.2500001   0.7499999   0.7499999  )
         5           Cs  tau(   5) = (   0.7499999   0.2500001   0.2500001  )
         6           Cs  tau(   6) = (   0.7499999   0.2500001   0.7499999  )
         7           Cs  tau(   7) = (   0.7499999   0.7499999   0.2500001  )
         8           Cs  tau(   8) = (   0.7499999   0.7499999   0.7499999  )
         9           Pb  tau(   9) = (   0.0000000   0.0000000   0.0000000  )
        10           Pb  tau(  10) = (   0.0000000   0.0000000   0.5000000  )
        11           Pb  tau(  11) = (   0.0000000   0.5000000   0.0000000  )
        12           Pb  tau(  12) = (   0.0000000   0.5000000   0.5000000  )
        13           Pb  tau(  13) = (   0.5000000   0.0000000   0.0000000  )
        14           Pb  tau(  14) = (   0.5000000   0.0000000   0.5000000  )
        15           Pb  tau(  15) = (   0.5000000   0.5000000   0.0000000  )
        16           Pb  tau(  16) = (   0.5000000   0.5000000   0.5000000  )
        17           I   tau(  17) = (   0.0000000   0.0000000   0.2500016  )
        18           I   tau(  18) = (   0.0000000   0.0000000   0.7499984  )
        19           I   tau(  19) = (   0.0000000   0.5000000   0.2500017  )
        20           I   tau(  20) = (   0.0000000   0.5000000   0.7499983  )
        21           I   tau(  21) = (   0.5000000   0.0000000   0.2500017  )
        22           I   tau(  22) = (   0.5000000   0.0000000   0.7499983  )
        23           I   tau(  23) = (   0.5000000   0.5000000   0.2500017  )
        24           I   tau(  24) = (   0.5000000   0.5000000   0.7499983  )
        25           I   tau(  25) = (   0.0000000   0.2500016   0.0000000  )
        26           I   tau(  26) = (   0.0000000   0.2500017   0.5000000  )
        27           I   tau(  27) = (   0.0000000   0.7499984   0.0000000  )
        28           I   tau(  28) = (   0.0000000   0.7499983   0.5000000  )
        29           I   tau(  29) = (   0.5000000   0.2500017   0.0000000  )
        30           I   tau(  30) = (   0.5000000   0.2500017   0.5000000  )
        31           I   tau(  31) = (   0.5000000   0.7499983   0.0000000  )
        32           I   tau(  32) = (   0.5000000   0.7499983   0.5000000  )
        33           I   tau(  33) = (   0.2500016   0.0000000   0.0000000  )
        34           I   tau(  34) = (   0.2500017   0.0000000   0.5000000  )
        35           I   tau(  35) = (   0.2500017   0.5000000   0.0000000  )
        36           I   tau(  36) = (   0.2500017   0.5000000   0.5000000  )
        37           I   tau(  37) = (   0.7499984   0.0000000   0.0000000  )
        38           I   tau(  38) = (   0.7499983   0.0000000   0.5000000  )
        39           I   tau(  39) = (   0.7499983   0.5000000   0.0000000  )
        40           I   tau(  40) = (   0.7499983   0.5000000   0.5000000  )

   Crystallographic axes

     site n.     atom                  positions (cryst. coord.)
         1           Cs  tau(   1) = (  0.2500001  0.2500001  0.2500001  )
         2           Cs  tau(   2) = (  0.2500001  0.2500001  0.7499999  )
         3           Cs  tau(   3) = (  0.2500001  0.7499999  0.2500001  )
         4           Cs  tau(   4) = (  0.2500001  0.7499999  0.7499999  )
         5           Cs  tau(   5) = (  0.7499999  0.2500001  0.2500001  )
         6           Cs  tau(   6) = (  0.7499999  0.2500001  0.7499999  )
         7           Cs  tau(   7) = (  0.7499999  0.7499999  0.2500001  )
         8           Cs  tau(   8) = (  0.7499999  0.7499999  0.7499999  )
         9           Pb  tau(   9) = (  0.0000000  0.0000000  0.0000000  )
        10           Pb  tau(  10) = (  0.0000000  0.0000000  0.5000000  )
        11           Pb  tau(  11) = (  0.0000000  0.5000000  0.0000000  )
        12           Pb  tau(  12) = (  0.0000000  0.5000000  0.5000000  )
        13           Pb  tau(  13) = (  0.5000000  0.0000000  0.0000000  )
        14           Pb  tau(  14) = (  0.5000000  0.0000000  0.5000000  )
        15           Pb  tau(  15) = (  0.5000000  0.5000000  0.0000000  )
        16           Pb  tau(  16) = (  0.5000000  0.5000000  0.5000000  )
        17           I   tau(  17) = (  0.0000000  0.0000000  0.2500016  )
        18           I   tau(  18) = (  0.0000000  0.0000000  0.7499984  )
        19           I   tau(  19) = (  0.0000000  0.5000000  0.2500017  )
        20           I   tau(  20) = (  0.0000000  0.5000000  0.7499983  )
        21           I   tau(  21) = (  0.5000000  0.0000000  0.2500017  )
        22           I   tau(  22) = (  0.5000000  0.0000000  0.7499983  )
        23           I   tau(  23) = (  0.5000000  0.5000000  0.2500017  )
        24           I   tau(  24) = (  0.5000000  0.5000000  0.7499983  )
        25           I   tau(  25) = (  0.0000000  0.2500016  0.0000000  )
        26           I   tau(  26) = (  0.0000000  0.2500017  0.5000000  )
        27           I   tau(  27) = (  0.0000000  0.7499984  0.0000000  )
        28           I   tau(  28) = (  0.0000000  0.7499983  0.5000000  )
        29           I   tau(  29) = (  0.5000000  0.2500017  0.0000000  )
        30           I   tau(  30) = (  0.5000000  0.2500017  0.5000000  )
        31           I   tau(  31) = (  0.5000000  0.7499983  0.0000000  )
        32           I   tau(  32) = (  0.5000000  0.7499983  0.5000000  )
        33           I   tau(  33) = (  0.2500016  0.0000000  0.0000000  )
        34           I   tau(  34) = (  0.2500017  0.0000000  0.5000000  )
        35           I   tau(  35) = (  0.2500017  0.5000000  0.0000000  )
        36           I   tau(  36) = (  0.2500017  0.5000000  0.5000000  )
        37           I   tau(  37) = (  0.7499984  0.0000000  0.0000000  )
        38           I   tau(  38) = (  0.7499983  0.0000000  0.5000000  )
        39           I   tau(  39) = (  0.7499983  0.5000000  0.0000000  )
        40           I   tau(  40) = (  0.7499983  0.5000000  0.5000000  )

     number of k points=     4  Marzari-Vanderbilt smearing, width (Ry)=  0.0147
                       cart. coord. in units 2pi/alat
        k(    1) = (   0.0000000   0.0000000   0.0000000), wk =   0.0740741
        k(    2) = (   0.0000000   0.0000000   0.3333333), wk =   0.4444444
        k(    3) = (   0.0000000   0.3333333   0.3333333), wk =   0.8888889
        k(    4) = (   0.3333333   0.3333333   0.3333333), wk =   0.5925926

                       cryst. coord.
        k(    1) = (   0.0000000   0.0000000   0.0000000), wk =   0.0740741
        k(    2) = (   0.0000000   0.0000000   0.3333333), wk =   0.4444444
        k(    3) = (   0.0000000   0.3333333   0.3333333), wk =   0.8888889
        k(    4) = (   0.3333333   0.3333333   0.3333333), wk =   0.5925926

     Dense  grid:  1356433 G-vectors     FFT dimensions: ( 144, 144, 144)

     Smooth grid:   343539 G-vectors     FFT dimensions: (  90,  90,  90)

     Dynamical RAM for                 wfc:     138.09 MB

     Dynamical RAM for     wfc (w. buffer):     690.43 MB

     Dynamical RAM for           str. fact:      62.09 MB

     Dynamical RAM for           local pot:       0.00 MB

     Dynamical RAM for          nlocal pot:     314.13 MB

     Dynamical RAM for                qrad:       4.31 MB

     Dynamical RAM for          rho,v,vnew:     130.44 MB

     Dynamical RAM for               rhoin:      43.48 MB

     Dynamical RAM for            rho*nmix:     331.16 MB

     Dynamical RAM for           G-vectors:      80.24 MB

     Dynamical RAM for          h,s,v(r/c):       8.15 MB

     Dynamical RAM for          <psi|beta>:       1.55 MB

     Dynamical RAM for                 psi:     276.17 MB

     Dynamical RAM for                hpsi:     276.17 MB

     Dynamical RAM for                spsi:     276.17 MB

     Dynamical RAM for      wfcinit/wfcrot:     357.71 MB

     Dynamical RAM for           addusdens:    4346.48 MB

     Dynamical RAM for          addusforce:    5309.01 MB

     Dynamical RAM for         addusstress:    4160.20 MB

     Estimated static dynamical RAM per process >       1.81 GB

     Estimated max dynamical RAM per process >       6.99 GB

     Initial potential from superposition of free atoms

     starting charge  351.66429, renormalised to  352.00000
     Starting wfcs are  272 randomized atomic wfcs
     Checking if some PAW data can be deallocated... 

     total cpu time spent up to now is      223.2 secs

     Self-consistent Calculation

     iteration #  1     ecut=    32.00 Ry     beta= 0.40
     Davidson diagonalization with overlap
     ethr =  1.00E-02,  avg # of iterations =  3.0

     Threshold (ethr) on eigenvalues was too large:
     Diagonalizing with lowered threshold

     Davidson diagonalization with overlap
     ethr =  2.56E-04,  avg # of iterations =  8.8

     total cpu time spent up to now is     1323.5 secs

     total energy              =  -16565.64533835 Ry
     estimated scf accuracy    <       0.81884361 Ry

     iteration #  2     ecut=    32.00 Ry     beta= 0.40
     Davidson diagonalization with overlap
     ethr =  2.33E-04,  avg # of iterations =  3.5

     total cpu time spent up to now is     1900.8 secs

     total energy              =  -16565.77321343 Ry
     estimated scf accuracy    <       0.05453765 Ry

     iteration #  3     ecut=    32.00 Ry     beta= 0.40
     Davidson diagonalization with overlap
     c_bands:  1 eigenvalues not converged
     ethr =  1.55E-05,  avg # of iterations = 15.5

     total cpu time spent up to now is     2717.1 secs

     total energy              =  -16565.79749268 Ry
     estimated scf accuracy    <       0.01894757 Ry

     iteration #  4     ecut=    32.00 Ry     beta= 0.40
     Davidson diagonalization with overlap
     c_bands:  2 eigenvalues not converged
     ethr =  5.38E-06,  avg # of iterations = 10.0

     total cpu time spent up to now is     3328.2 secs

     total energy              =  -16565.80043223 Ry
     estimated scf accuracy    <       0.00218583 Ry

     iteration #  5     ecut=    32.00 Ry     beta= 0.40
     Davidson diagonalization with overlap
     ethr =  6.21E-07,  avg # of iterations =  6.0

     total cpu time spent up to now is     3974.0 secs

     total energy              =  -16565.80088020 Ry
     estimated scf accuracy    <       0.00046348 Ry

     iteration #  6     ecut=    32.00 Ry     beta= 0.40
     Davidson diagonalization with overlap
     ethr =  1.32E-07,  avg # of iterations =  4.5

     total cpu time spent up to now is     4540.0 secs

     total energy              =  -16565.80093684 Ry
     estimated scf accuracy    <       0.00008208 Ry

     iteration #  7     ecut=    32.00 Ry     beta= 0.40
     Davidson diagonalization with overlap
     ethr =  2.33E-08,  avg # of iterations =  4.0

     total cpu time spent up to now is     5291.5 secs

     total energy              =  -16565.80097682 Ry
     estimated scf accuracy    <       0.00001649 Ry

     iteration #  8     ecut=    32.00 Ry     beta= 0.40
     Davidson diagonalization with overlap
     ethr =  4.68E-09,  avg # of iterations =  3.2

     total cpu time spent up to now is     5801.1 secs

     total energy              =  -16565.80097757 Ry
     estimated scf accuracy    <       0.00000606 Ry

     iteration #  9     ecut=    32.00 Ry     beta= 0.40
     Davidson diagonalization with overlap
     ethr =  1.72E-09,  avg # of iterations =  4.2

     total cpu time spent up to now is     6422.4 secs

     total energy              =  -16565.80097902 Ry
     estimated scf accuracy    <       0.00000088 Ry

     iteration # 10     ecut=    32.00 Ry     beta= 0.40
     Davidson diagonalization with overlap
     ethr =  2.49E-10,  avg # of iterations =  5.0

     total cpu time spent up to now is     7005.9 secs

     total energy              =  -16565.80097919 Ry
     estimated scf accuracy    <       0.00000020 Ry

     iteration # 11     ecut=    32.00 Ry     beta= 0.40
     Davidson diagonalization with overlap
     ethr =  5.66E-11,  avg # of iterations =  4.5

     total cpu time spent up to now is     7688.3 secs

     End of self-consistent calculation

          k = 0.0000 0.0000 0.0000 ( 42931 PWs)   bands (ev):

   -18.6189 -18.6186 -18.6186 -18.6186 -18.6184 -18.6184 -18.6184 -18.6182
   -13.8581 -13.8581 -13.8580 -13.8579 -13.8579 -13.8525 -13.8524 -13.8524
   -13.8468 -13.8468 -13.8468 -13.8411 -13.8411 -13.8411 -13.8410 -13.8410
   -13.8058 -13.8058 -13.8058 -13.8057 -13.8057 -13.8057 -13.8055 -13.8055
   -13.8055 -13.8054 -13.8054 -13.8054 -13.8053 -13.8053 -13.8053 -13.8053
   -13.8053 -13.8053 -13.8052 -13.8052 -13.8052 -13.8051 -13.8051 -13.8051
    -9.3421  -9.1449  -9.1449  -9.1449  -8.9027  -8.9027  -8.9027  -8.8415
    -8.8415  -8.8415  -8.8415  -8.8415  -8.8415  -8.8410  -8.8410  -8.8410
    -8.8359  -8.8359  -8.8359  -8.6134  -8.6134  -8.6113  -8.6113  -8.6113
    -5.6586  -5.4074  -5.4074  -5.4074  -5.3943  -5.3943  -5.3943  -5.3942
    -5.3942  -5.3942  -5.3942  -5.3942  -5.3942  -5.3904  -5.3904  -5.3904
    -5.3904  -5.3904  -5.3904  -5.3871  -5.3871  -5.3871  -5.3862  -5.3862
    -5.3862  -5.1293  -5.1293  -5.1293  -4.6227  -4.6227  -4.6227  -4.1093
    -0.6242  -0.6242  -0.6242  -0.5212  -0.5212  -0.5212  -0.5212  -0.5212
    -0.5212  -0.3852  -0.3852  -0.3852   0.6088   0.6088   0.6088   0.7406
     0.7406   0.7406   0.8910   0.8910   0.8910   1.2097   1.2097   1.2097
     1.2097   1.2097   1.2097   1.3082   1.3082   1.3082   1.3082   1.3082
     1.3082   1.3567   1.3567   1.3567   1.3567   1.3567   1.3567   1.4201
     1.4201   1.4201   1.4387   1.4387   1.4387   1.4460   1.4460   1.5495
     1.5495   1.5495   1.5751   1.5751   1.5751   1.5751   1.5751   1.5751
     1.6637   1.6637   1.6637   1.9023   1.9023   1.9023   2.0497   2.0497
     2.0497   2.0618   2.0618   2.0618   2.3358   2.3358   2.3358   2.7697
     4.2010   4.2010   4.2010   4.6288   4.6288   4.6288   4.6288   4.6288
     4.6288   4.9608   4.9608   4.9608   5.8999   6.7516   6.9749   6.9749
     7.3232   7.3232   7.3232   7.3914   7.3914   7.3914   7.5521   7.5521
     7.5521   7.6027   7.6027   7.6027   7.7705   7.7705   7.7705   7.8701
     7.9125   7.9125   7.9125

     occupation numbers 
     1.0000   1.0000   1.0000   1.0000   1.0000   1.0000   1.0000   1.0000
     1.0000   1.0000   1.0000   1.0000   1.0000   1.0000   1.0000   1.0000
     1.0000   1.0000   1.0000   1.0000   1.0000   1.0000   1.0000   1.0000
     1.0000   1.0000   1.0000   1.0000   1.0000   1.0000   1.0000   1.0000
     1.0000   1.0000   1.0000   1.0000   1.0000   1.0000   1.0000   1.0000
     1.0000   1.0000   1.0000   1.0000   1.0000   1.0000   1.0000   1.0000
     1.0000   1.0000   1.0000   1.0000   1.0000   1.0000   1.0000   1.0000
     1.0000   1.0000   1.0000   1.0000   1.0000   1.0000   1.0000   1.0000
     1.0000   1.0000   1.0000   1.0000   1.0000   1.0000   1.0000   1.0000
     1.0000   1.0000   1.0000   1.0000   1.0000   1.0000   1.0000   1.0000
     1.0000   1.0000   1.0000   1.0000   1.0000   1.0000   1.0000   1.0000
     1.0000   1.0000   1.0000   1.0000   1.0000   1.0000   1.0000   1.0000
     1.0000   1.0000   1.0000   1.0000   1.0000   1.0000   1.0000   1.0000
     1.0000   1.0000   1.0000   1.0000   1.0000   1.0000   1.0000   1.0000
     1.0000   1.0000   1.0000   1.0000   1.0000   1.0000   1.0000   1.0000
     1.0000   1.0000   1.0000   1.0000   1.0000   1.0000   1.0000   1.0000
     1.0000   1.0000   1.0000   1.0000   1.0000   1.0000   1.0000   1.0000
     1.0000   1.0000   1.0000   1.0000   1.0000   1.0000   1.0000   1.0000
     1.0000   1.0000   1.0000   1.0000   1.0000   1.0000   1.0000   1.0000
     1.0000   1.0000   1.0000   1.0000   1.0000   1.0000   1.0000   1.0000
     1.0000   1.0000   1.0000   1.0000   1.0000   1.0000   1.0014   1.0014
     1.0014   1.0018   1.0018   1.0018   1.0771   1.0771   1.0771   0.1105
     0.0000   0.0000   0.0000   0.0000   0.0000   0.0000   0.0000   0.0000
     0.0000   0.0000   0.0000   0.0000   0.0000   0.0000   0.0000   0.0000
     0.0000   0.0000   0.0000   0.0000   0.0000   0.0000   0.0000   0.0000
     0.0000   0.0000   0.0000   0.0000   0.0000   0.0000   0.0000   0.0000
     0.0000   0.0000   0.0000

          k = 0.0000 0.0000 0.3333 ( 42908 PWs)   bands (ev):

   -18.6188 -18.6187 -18.6186 -18.6186 -18.6185 -18.6185 -18.6184 -18.6183
   -13.8580 -13.8580 -13.8560 -13.8560 -13.8552 -13.8533 -13.8533 -13.8498
   -13.8496 -13.8459 -13.8459 -13.8439 -13.8430 -13.8430 -13.8410 -13.8410
   -13.8059 -13.8058 -13.8057 -13.8057 -13.8057 -13.8057 -13.8055 -13.8055
   -13.8054 -13.8054 -13.8054 -13.8054 -13.8053 -13.8053 -13.8053 -13.8053
   -13.8053 -13.8053 -13.8052 -13.8052 -13.8052 -13.8051 -13.8051 -13.8051
    -9.3065  -9.2146  -9.1094  -9.1094  -9.0118  -9.0118  -8.8869  -8.8535
    -8.8413  -8.8413  -8.8411  -8.8411  -8.8401  -8.8401  -8.8373  -8.8373
    -8.7634  -8.7352  -8.7352  -8.6562  -8.6436  -8.6436  -8.6128  -8.6118
    -5.5388  -5.4041  -5.4041  -5.4023  -5.3975  -5.3975  -5.3933  -5.3933
    -5.3932  -5.3932  -5.3932  -5.3932  -5.3922  -5.3917  -5.3914  -5.3914
    -5.3913  -5.3913  -5.3896  -5.3896  -5.3889  -5.3889  -5.3879  -5.3879
    -5.3876  -5.2762  -5.0182  -5.0182  -4.7682  -4.7682  -4.5163  -4.2639
    -0.6001  -0.6001  -0.5487  -0.5487  -0.4900  -0.4900  -0.4223  -0.4223
    -0.2307  -0.1329  -0.1329   0.0067   0.5605   0.6409   0.6712   0.6712
     0.7069   0.7163   0.7163   0.8011   0.8011   0.8142   0.8142   0.9042
     0.9770   0.9770   1.2026   1.2026   1.2225   1.2225   1.3202   1.3202
     1.3444   1.3444   1.3771   1.3771   1.4121   1.4121   1.4405   1.4445
     1.4512   1.5050   1.5050   1.5102   1.5102   1.5112   1.5112   1.5159
     1.5550   1.5550   1.5903   1.5903   1.6024   1.6024   1.6254   1.6317
     1.6317   1.6596   1.6762   1.6762   1.9190   1.9190   1.9358   1.9358
     1.9388   1.9388   2.0527   2.0588   2.0821   2.0821   2.3612   2.4841
     4.3204   4.3204   4.5329   4.5329   4.7214   4.7214   4.8881   4.8881
     5.2161   5.5341   5.5341   5.8212   6.1523   6.7161   6.7874   6.9449
     7.0592   7.0592   7.1137   7.1808   7.4005   7.4495   7.4495   7.4516
     7.4551   7.5695   7.5696   7.5942   7.5943   7.6748   7.7381   7.7382
     7.7761   7.7762   7.8678

     occupation numbers 
     1.0000   1.0000   1.0000   1.0000   1.0000   1.0000   1.0000   1.0000
     1.0000   1.0000   1.0000   1.0000   1.0000   1.0000   1.0000   1.0000
     1.0000   1.0000   1.0000   1.0000   1.0000   1.0000   1.0000   1.0000
     1.0000   1.0000   1.0000   1.0000   1.0000   1.0000   1.0000   1.0000
     1.0000   1.0000   1.0000   1.0000   1.0000   1.0000   1.0000   1.0000
     1.0000   1.0000   1.0000   1.0000   1.0000   1.0000   1.0000   1.0000
     1.0000   1.0000   1.0000   1.0000   1.0000   1.0000   1.0000   1.0000
     1.0000   1.0000   1.0000   1.0000   1.0000   1.0000   1.0000   1.0000
     1.0000   1.0000   1.0000   1.0000   1.0000   1.0000   1.0000   1.0000
     1.0000   1.0000   1.0000   1.0000   1.0000   1.0000   1.0000   1.0000
     1.0000   1.0000   1.0000   1.0000   1.0000   1.0000   1.0000   1.0000
     1.0000   1.0000   1.0000   1.0000   1.0000   1.0000   1.0000   1.0000
     1.0000   1.0000   1.0000   1.0000   1.0000   1.0000   1.0000   1.0000
     1.0000   1.0000   1.0000   1.0000   1.0000   1.0000   1.0000   1.0000
     1.0000   1.0000   1.0000   1.0000   1.0000   1.0000   1.0000   1.0000
     1.0000   1.0000   1.0000   1.0000   1.0000   1.0000   1.0000   1.0000
     1.0000   1.0000   1.0000   1.0000   1.0000   1.0000   1.0000   1.0000
     1.0000   1.0000   1.0000   1.0000   1.0000   1.0000   1.0000   1.0000
     1.0000   1.0000   1.0000   1.0000   1.0000   1.0000   1.0000   1.0000
     1.0000   1.0000   1.0000   1.0000   1.0000   1.0000   1.0000   1.0000
     1.0000   1.0000   1.0000   1.0000   1.0000   1.0000   1.0001   1.0001
     1.0001   1.0001   1.0015   1.0017   1.0027   1.0027   1.0828   0.9702
     0.0000   0.0000   0.0000   0.0000   0.0000   0.0000   0.0000   0.0000
     0.0000   0.0000   0.0000   0.0000   0.0000   0.0000   0.0000   0.0000
     0.0000   0.0000   0.0000   0.0000   0.0000   0.0000   0.0000   0.0000
     0.0000   0.0000   0.0000   0.0000   0.0000   0.0000   0.0000   0.0000
     0.0000   0.0000   0.0000

          k = 0.0000 0.3333 0.3333 ( 42909 PWs)   bands (ev):

   -18.6187 -18.6186 -18.6186 -18.6185 -18.6185 -18.6184 -18.6184 -18.6183
   -13.8566 -13.8561 -13.8561 -13.8538 -13.8538 -13.8538 -13.8505 -13.8505
   -13.8487 -13.8487 -13.8453 -13.8453 -13.8452 -13.8430 -13.8429 -13.8425
   -13.8058 -13.8057 -13.8057 -13.8056 -13.8056 -13.8056 -13.8055 -13.8055
   -13.8055 -13.8054 -13.8054 -13.8054 -13.8054 -13.8054 -13.8053 -13.8053
   -13.8053 -13.8053 -13.8053 -13.8052 -13.8052 -13.8052 -13.8052 -13.8051
    -9.2714  -9.1801  -9.1801  -9.0890  -9.0765  -8.9872  -8.9872  -8.9233
    -8.8408  -8.8403  -8.8403  -8.8383  -8.7869  -8.7821  -8.7657  -8.7657
    -8.7462  -8.7462  -8.7125  -8.6730  -8.6699  -8.6433  -8.6433  -8.6355
    -5.4294  -5.4031  -5.3973  -5.3973  -5.3970  -5.3968  -5.3968  -5.3946
    -5.3941  -5.3939  -5.3939  -5.3927  -5.3927  -5.3924  -5.3918  -5.3907
    -5.3905  -5.3905  -5.3902  -5.3902  -5.3894  -5.3888  -5.3885  -5.3881
    -5.3881  -5.1631  -5.1631  -4.9123  -4.9101  -4.6622  -4.6622  -4.4138
    -0.5744  -0.5195  -0.5195  -0.4566  -0.2844  -0.1686  -0.1686  -0.1633
    -0.1322  -0.0404  -0.0387  -0.0387   0.5658   0.5777   0.5777   0.6346
     0.6936   0.6936   0.7249   0.7316   0.7316   0.7542   0.7735   0.7883
     0.8199   0.9806   0.9806   1.0465   1.0493   1.1513   1.1854   1.1854
     1.2230   1.2230   1.3306   1.3485   1.3645   1.3991   1.3991   1.4106
     1.4848   1.5250   1.5282   1.5282   1.5310   1.5508   1.5508   1.5647
     1.5828   1.5865   1.5944   1.5944   1.6245   1.6245   1.6708   1.6916
     1.6916   1.7095   1.7372   1.7558   1.7558   1.7910   1.8643   1.8908
     1.8969   1.9446   1.9446   1.9523   1.9791   2.0902   2.0902   2.1805
     4.4312   4.6309   4.6309   4.8086   5.2483   5.3340   5.4513   5.4513
     5.5748   5.6348   5.7505   5.7505   6.3636   6.7747   6.7747   6.8941
     6.8941   6.9130   6.9666   7.0796   7.1690   7.1690   7.1999   7.2830
     7.2954   7.3410   7.3510   7.4172   7.4404   7.4404   7.5777   7.5858
     7.5858   7.6255   7.7005

     occupation numbers 
     1.0000   1.0000   1.0000   1.0000   1.0000   1.0000   1.0000   1.0000
     1.0000   1.0000   1.0000   1.0000   1.0000   1.0000   1.0000   1.0000
     1.0000   1.0000   1.0000   1.0000   1.0000   1.0000   1.0000   1.0000
     1.0000   1.0000   1.0000   1.0000   1.0000   1.0000   1.0000   1.0000
     1.0000   1.0000   1.0000   1.0000   1.0000   1.0000   1.0000   1.0000
     1.0000   1.0000   1.0000   1.0000   1.0000   1.0000   1.0000   1.0000
     1.0000   1.0000   1.0000   1.0000   1.0000   1.0000   1.0000   1.0000
     1.0000   1.0000   1.0000   1.0000   1.0000   1.0000   1.0000   1.0000
     1.0000   1.0000   1.0000   1.0000   1.0000   1.0000   1.0000   1.0000
     1.0000   1.0000   1.0000   1.0000   1.0000   1.0000   1.0000   1.0000
     1.0000   1.0000   1.0000   1.0000   1.0000   1.0000   1.0000   1.0000
     1.0000   1.0000   1.0000   1.0000   1.0000   1.0000   1.0000   1.0000
     1.0000   1.0000   1.0000   1.0000   1.0000   1.0000   1.0000   1.0000
     1.0000   1.0000   1.0000   1.0000   1.0000   1.0000   1.0000   1.0000
     1.0000   1.0000   1.0000   1.0000   1.0000   1.0000   1.0000   1.0000
     1.0000   1.0000   1.0000   1.0000   1.0000   1.0000   1.0000   1.0000
     1.0000   1.0000   1.0000   1.0000   1.0000   1.0000   1.0000   1.0000
     1.0000   1.0000   1.0000   1.0000   1.0000   1.0000   1.0000   1.0000
     1.0000   1.0000   1.0000   1.0000   1.0000   1.0000   1.0000   1.0000
     1.0000   1.0000   1.0000   1.0000   1.0000   1.0000   1.0000   1.0000
     1.0000   1.0000   1.0000   1.0000   1.0000   1.0000   1.0000   1.0000
     1.0000   1.0001   1.0001   1.0001   1.0002   1.0032   1.0032   1.0160
     0.0000   0.0000   0.0000   0.0000   0.0000   0.0000   0.0000   0.0000
     0.0000   0.0000   0.0000   0.0000   0.0000   0.0000   0.0000   0.0000
     0.0000   0.0000   0.0000   0.0000   0.0000   0.0000   0.0000   0.0000
     0.0000   0.0000   0.0000   0.0000   0.0000   0.0000   0.0000   0.0000
     0.0000   0.0000   0.0000

          k = 0.3333 0.3333 0.3333 ( 42835 PWs)   bands (ev):

   -18.6187 -18.6186 -18.6186 -18.6186 -18.6185 -18.6185 -18.6185 -18.6184
   -13.8538 -13.8538 -13.8538 -13.8537 -13.8537 -13.8510 -13.8510 -13.8510
   -13.8482 -13.8481 -13.8481 -13.8453 -13.8453 -13.8453 -13.8452 -13.8452
   -13.8056 -13.8056 -13.8056 -13.8056 -13.8056 -13.8056 -13.8055 -13.8055
   -13.8055 -13.8054 -13.8054 -13.8054 -13.8053 -13.8053 -13.8053 -13.8053
   -13.8053 -13.8053 -13.8052 -13.8052 -13.8052 -13.8052 -13.8052 -13.8052
    -9.2371  -9.1475  -9.1475  -9.1475  -9.0612  -9.0612  -9.0612  -8.9886
    -8.7857  -8.7857  -8.7857  -8.7833  -8.7833  -8.7670  -8.7670  -8.7670
    -8.7306  -8.7305  -8.7305  -8.6722  -8.6722  -8.6706  -8.6706  -8.6706
    -5.4008  -5.4008  -5.3964  -5.3962  -5.3962  -5.3962  -5.3962  -5.3962
    -5.3962  -5.3944  -5.3944  -5.3944  -5.3941  -5.3941  -5.3933  -5.3933
    -5.3933  -5.3887  -5.3887  -5.3887  -5.3869  -5.3868  -5.3868  -5.3868
    -5.3048  -5.0540  -5.0540  -5.0540  -4.8063  -4.8063  -4.8063  -4.5602
    -0.2568  -0.2568  -0.1967  -0.1967  -0.1967  -0.0835  -0.0835  -0.0835
    -0.0803  -0.0803  -0.0803  -0.0386   0.5918   0.5918   0.5918   0.5939
     0.5939   0.5939   0.6490   0.6490   0.6490   0.6652   0.6652   0.6882
     0.9564   0.9564   0.9964   0.9964   0.9964   1.1279   1.1279   1.1279
     1.1709   1.1709   1.1709   1.2670   1.2670   1.2670   1.3148   1.3148
     1.4233   1.4404   1.4404   1.4404   1.4847   1.4847   1.4847   1.6654
     1.6776   1.6776   1.6776   1.7067   1.7067   1.7143   1.7143   1.7143
     1.7308   1.7308   1.7308   1.7363   1.7676   1.7676   1.7676   1.8223
     1.8223   1.8223   1.8793   1.8793   1.8978   1.8978   1.8978   1.9201
     5.3281   5.3281   5.4406   5.4916   5.4916   5.4916   5.5553   5.5553
     5.5553   5.6745   5.6745   5.6745   6.5122   6.8135   6.8135   6.8135
     6.8460   6.8460   6.8460   7.0120   7.0120   7.0120   7.1156   7.1469
     7.1469   7.1817   7.1818   7.1818   7.1874   7.2805   7.2805   7.2805
     7.4017   7.4017   7.7714

     occupation numbers 
     1.0000   1.0000   1.0000   1.0000   1.0000   1.0000   1.0000   1.0000
     1.0000   1.0000   1.0000   1.0000   1.0000   1.0000   1.0000   1.0000
     1.0000   1.0000   1.0000   1.0000   1.0000   1.0000   1.0000   1.0000
     1.0000   1.0000   1.0000   1.0000   1.0000   1.0000   1.0000   1.0000
     1.0000   1.0000   1.0000   1.0000   1.0000   1.0000   1.0000   1.0000
     1.0000   1.0000   1.0000   1.0000   1.0000   1.0000   1.0000   1.0000
     1.0000   1.0000   1.0000   1.0000   1.0000   1.0000   1.0000   1.0000
     1.0000   1.0000   1.0000   1.0000   1.0000   1.0000   1.0000   1.0000
     1.0000   1.0000   1.0000   1.0000   1.0000   1.0000   1.0000   1.0000
     1.0000   1.0000   1.0000   1.0000   1.0000   1.0000   1.0000   1.0000
     1.0000   1.0000   1.0000   1.0000   1.0000   1.0000   1.0000   1.0000
     1.0000   1.0000   1.0000   1.0000   1.0000   1.0000   1.0000   1.0000
     1.0000   1.0000   1.0000   1.0000   1.0000   1.0000   1.0000   1.0000
     1.0000   1.0000   1.0000   1.0000   1.0000   1.0000   1.0000   1.0000
     1.0000   1.0000   1.0000   1.0000   1.0000   1.0000   1.0000   1.0000
     1.0000   1.0000   1.0000   1.0000   1.0000   1.0000   1.0000   1.0000
     1.0000   1.0000   1.0000   1.0000   1.0000   1.0000   1.0000   1.0000
     1.0000   1.0000   1.0000   1.0000   1.0000   1.0000   1.0000   1.0000
     1.0000   1.0000   1.0000   1.0000   1.0000   1.0000   1.0000   1.0000
     1.0000   1.0000   1.0000   1.0000   1.0000   1.0000   1.0000   1.0000
     1.0000   1.0000   1.0000   1.0000   1.0000   1.0000   1.0000   1.0000
     1.0000   1.0000   1.0000   1.0000   1.0000   1.0000   1.0000   1.0000
     0.0000   0.0000   0.0000   0.0000   0.0000   0.0000   0.0000   0.0000
     0.0000   0.0000   0.0000   0.0000   0.0000   0.0000   0.0000   0.0000
     0.0000   0.0000   0.0000   0.0000   0.0000   0.0000   0.0000   0.0000
     0.0000   0.0000   0.0000   0.0000   0.0000   0.0000   0.0000   0.0000
     0.0000   0.0000   0.0000

     the Fermi energy is     2.6537 ev

!    total energy              =  -16565.80097926 Ry
     estimated scf accuracy    <          6.6E-09 Ry
     smearing contrib. (-TS)   =       0.00295418 Ry
     internal energy E=F+TS    =  -16565.80393345 Ry

     The total energy is F=E-TS. E is the sum of the following terms:
     one-electron contribution =    -767.67040491 Ry
     hartree contribution      =     549.97357605 Ry
     xc contribution           =   -1598.52061460 Ry
     ewald contribution        =   -1229.22289246 Ry
     one-center paw contrib.   =  -13520.36359752 Ry
      -> PAW hartree energy AE =    1011.05006880 Ry
      -> PAW hartree energy PS =   -1010.72901160 Ry
      -> PAW xc energy AE      =  -14841.39805259 Ry
      -> PAW xc energy PS      =    1320.71339786 Ry
      -> total E_H with PAW    =     550.29463325 Ry
      -> total E_XC with PAW   =  -15119.20526932 Ry

     convergence has been achieved in  11 iterations

     Forces acting on atoms (cartesian axes, Ry/au):

     atom    1 type  1   force =     0.00000027    0.00000027    0.00000027
     atom    2 type  1   force =     0.00000027    0.00000027   -0.00000027
     atom    3 type  1   force =     0.00000027   -0.00000027    0.00000027
     atom    4 type  1   force =     0.00000027   -0.00000027   -0.00000027
     atom    5 type  1   force =    -0.00000027    0.00000027    0.00000027
     atom    6 type  1   force =    -0.00000027    0.00000027   -0.00000027
     atom    7 type  1   force =    -0.00000027   -0.00000027    0.00000027
     atom    8 type  1   force =    -0.00000027   -0.00000027   -0.00000027
     atom    9 type  3   force =     0.00000000    0.00000000    0.00000000
     atom   10 type  3   force =     0.00000000    0.00000000    0.00000000
     atom   11 type  3   force =     0.00000000    0.00000000    0.00000000
     atom   12 type  3   force =     0.00000000    0.00000000    0.00000000
     atom   13 type  3   force =     0.00000000    0.00000000    0.00000000
     atom   14 type  3   force =     0.00000000    0.00000000    0.00000000
     atom   15 type  3   force =     0.00000000    0.00000000    0.00000000
     atom   16 type  3   force =     0.00000000    0.00000000    0.00000000
     atom   17 type  2   force =     0.00000000    0.00000000   -0.00000343
     atom   18 type  2   force =     0.00000000    0.00000000    0.00000343
     atom   19 type  2   force =     0.00000000    0.00000000   -0.00000696
     atom   20 type  2   force =     0.00000000   -0.00000000    0.00000696
     atom   21 type  2   force =    -0.00000000   -0.00000000   -0.00000696
     atom   22 type  2   force =    -0.00000000   -0.00000000    0.00000696
     atom   23 type  2   force =     0.00000000    0.00000000   -0.00000133
     atom   24 type  2   force =     0.00000000    0.00000000    0.00000133
     atom   25 type  2   force =     0.00000000   -0.00000343    0.00000000
     atom   26 type  2   force =     0.00000000   -0.00000696   -0.00000000
     atom   27 type  2   force =     0.00000000    0.00000343    0.00000000
     atom   28 type  2   force =     0.00000000    0.00000696    0.00000000
     atom   29 type  2   force =    -0.00000000   -0.00000696    0.00000000
     atom   30 type  2   force =    -0.00000000   -0.00000133   -0.00000000
     atom   31 type  2   force =     0.00000000    0.00000696    0.00000000
     atom   32 type  2   force =     0.00000000    0.00000133    0.00000000
     atom   33 type  2   force =    -0.00000343    0.00000000    0.00000000
     atom   34 type  2   force =    -0.00000696   -0.00000000    0.00000000
     atom   35 type  2   force =    -0.00000696    0.00000000    0.00000000
     atom   36 type  2   force =    -0.00000133   -0.00000000    0.00000000
     atom   37 type  2   force =     0.00000343    0.00000000    0.00000000
     atom   38 type  2   force =     0.00000696   -0.00000000    0.00000000
     atom   39 type  2   force =     0.00000696    0.00000000    0.00000000
     atom   40 type  2   force =     0.00000133    0.00000000    0.00000000
     The non-local contrib.  to forces
     atom    1 type  1   force =     0.00000018    0.00000018    0.00000018
     atom    2 type  1   force =     0.00000018    0.00000018   -0.00000018
     atom    3 type  1   force =     0.00000018   -0.00000018    0.00000018
     atom    4 type  1   force =     0.00000018   -0.00000018   -0.00000018
     atom    5 type  1   force =    -0.00000018    0.00000018    0.00000018
     atom    6 type  1   force =    -0.00000018    0.00000018   -0.00000018
     atom    7 type  1   force =    -0.00000018   -0.00000018    0.00000018
     atom    8 type  1   force =    -0.00000018   -0.00000018   -0.00000018
     atom    9 type  3   force =     0.00000000    0.00000000    0.00000000
     atom   10 type  3   force =     0.00000000    0.00000000    0.00000000
     atom   11 type  3   force =     0.00000000    0.00000000    0.00000000
     atom   12 type  3   force =     0.00000000    0.00000000    0.00000000
     atom   13 type  3   force =     0.00000000    0.00000000    0.00000000
     atom   14 type  3   force =     0.00000000    0.00000000    0.00000000
     atom   15 type  3   force =     0.00000000    0.00000000    0.00000000
     atom   16 type  3   force =     0.00000000    0.00000000    0.00000000
     atom   17 type  2   force =     0.00000000    0.00000000    0.00000188
     atom   18 type  2   force =     0.00000000    0.00000000   -0.00000188
     atom   19 type  2   force =     0.00000000    0.00000000   -0.00000274
     atom   20 type  2   force =     0.00000000    0.00000000    0.00000274
     atom   21 type  2   force =     0.00000000    0.00000000   -0.00000274
     atom   22 type  2   force =     0.00000000    0.00000000    0.00000274
     atom   23 type  2   force =     0.00000000    0.00000000    0.00000614
     atom   24 type  2   force =    -0.00000000    0.00000000   -0.00000614
     atom   25 type  2   force =     0.00000000    0.00000188    0.00000000
     atom   26 type  2   force =     0.00000000   -0.00000274    0.00000000
     atom   27 type  2   force =     0.00000000   -0.00000188    0.00000000
     atom   28 type  2   force =     0.00000000    0.00000274    0.00000000
     atom   29 type  2   force =     0.00000000   -0.00000274    0.00000000
     atom   30 type  2   force =     0.00000000    0.00000614    0.00000000
     atom   31 type  2   force =     0.00000000    0.00000274    0.00000000
     atom   32 type  2   force =     0.00000000   -0.00000614    0.00000000
     atom   33 type  2   force =     0.00000188    0.00000000    0.00000000
     atom   34 type  2   force =    -0.00000274    0.00000000    0.00000000
     atom   35 type  2   force =    -0.00000274    0.00000000    0.00000000
     atom   36 type  2   force =     0.00000614    0.00000000    0.00000000
     atom   37 type  2   force =    -0.00000188    0.00000000   -0.00000000
     atom   38 type  2   force =     0.00000274    0.00000000    0.00000000
     atom   39 type  2   force =     0.00000274    0.00000000    0.00000000
     atom   40 type  2   force =    -0.00000614    0.00000000    0.00000000
     The ionic contribution  to forces
     atom    1 type  1   force =    -0.00004935   -0.00004935   -0.00004935
     atom    2 type  1   force =    -0.00004935   -0.00004935    0.00004935
     atom    3 type  1   force =    -0.00004935    0.00004935   -0.00004935
     atom    4 type  1   force =    -0.00004935    0.00004935    0.00004935
     atom    5 type  1   force =     0.00004935   -0.00004935   -0.00004935
     atom    6 type  1   force =     0.00004935   -0.00004935    0.00004935
     atom    7 type  1   force =     0.00004935    0.00004935   -0.00004935
     atom    8 type  1   force =     0.00004935    0.00004935    0.00004935
     atom    9 type  3   force =    -0.00000000   -0.00000000   -0.00000000
     atom   10 type  3   force =     0.00000000    0.00000000    0.00000000
     atom   11 type  3   force =     0.00000000    0.00000000    0.00000000
     atom   12 type  3   force =    -0.00000000    0.00000000    0.00000000
     atom   13 type  3   force =     0.00000000    0.00000000    0.00000000
     atom   14 type  3   force =     0.00000000   -0.00000000    0.00000000
     atom   15 type  3   force =     0.00000000    0.00000000   -0.00000000
     atom   16 type  3   force =     0.00000000    0.00000000    0.00000000
     atom   17 type  2   force =    -0.00000000   -0.00000000   -0.00020855
     atom   18 type  2   force =    -0.00000000   -0.00000000    0.00020855
     atom   19 type  2   force =    -0.00000000    0.00000000   -0.00021075
     atom   20 type  2   force =    -0.00000000    0.00000000    0.00021075
     atom   21 type  2   force =     0.00000000   -0.00000000   -0.00021075
     atom   22 type  2   force =     0.00000000   -0.00000000    0.00021075
     atom   23 type  2   force =     0.00000000    0.00000000   -0.00021115
     atom   24 type  2   force =    -0.00000000   -0.00000000    0.00021115
     atom   25 type  2   force =    -0.00000000   -0.00020855   -0.00000000
     atom   26 type  2   force =    -0.00000000   -0.00021075    0.00000000
     atom   27 type  2   force =    -0.00000000    0.00020855   -0.00000000
     atom   28 type  2   force =    -0.00000000    0.00021075    0.00000000
     atom   29 type  2   force =     0.00000000   -0.00021075   -0.00000000
     atom   30 type  2   force =     0.00000000   -0.00021115    0.00000000
     atom   31 type  2   force =     0.00000000    0.00021075   -0.00000000
     atom   32 type  2   force =    -0.00000000    0.00021115   -0.00000000
     atom   33 type  2   force =    -0.00020855   -0.00000000   -0.00000000
     atom   34 type  2   force =    -0.00021075   -0.00000000    0.00000000
     atom   35 type  2   force =    -0.00021075    0.00000000   -0.00000000
     atom   36 type  2   force =    -0.00021115    0.00000000    0.00000000
     atom   37 type  2   force =     0.00020855   -0.00000000   -0.00000000
     atom   38 type  2   force =     0.00021075   -0.00000000    0.00000000
     atom   39 type  2   force =     0.00021075    0.00000000   -0.00000000
     atom   40 type  2   force =     0.00021115   -0.00000000   -0.00000000
     The local contribution  to forces
     atom    1 type  1   force =     0.00004873    0.00004873    0.00004873
     atom    2 type  1   force =     0.00004873    0.00004873   -0.00004873
     atom    3 type  1   force =     0.00004873   -0.00004873    0.00004873
     atom    4 type  1   force =     0.00004873   -0.00004873   -0.00004873
     atom    5 type  1   force =    -0.00004873    0.00004873    0.00004873
     atom    6 type  1   force =    -0.00004873    0.00004873   -0.00004873
     atom    7 type  1   force =    -0.00004873   -0.00004873    0.00004873
     atom    8 type  1   force =    -0.00004873   -0.00004873   -0.00004873
     atom    9 type  3   force =     0.00000000    0.00000000    0.00000000
     atom   10 type  3   force =    -0.00000000    0.00000000    0.00000000
     atom   11 type  3   force =    -0.00000000    0.00000000    0.00000000
     atom   12 type  3   force =    -0.00000000    0.00000000    0.00000000
     atom   13 type  3   force =     0.00000000    0.00000000    0.00000000
     atom   14 type  3   force =     0.00000000    0.00000000    0.00000000
     atom   15 type  3   force =     0.00000000    0.00000000    0.00000000
     atom   16 type  3   force =     0.00000000    0.00000000    0.00000000
     atom   17 type  2   force =    -0.00000000    0.00000000    0.00021162
     atom   18 type  2   force =    -0.00000000   -0.00000000   -0.00021162
     atom   19 type  2   force =    -0.00000000    0.00000000    0.00018510
     atom   20 type  2   force =    -0.00000000    0.00000000   -0.00018510
     atom   21 type  2   force =     0.00000000   -0.00000000    0.00018510
     atom   22 type  2   force =     0.00000000   -0.00000000   -0.00018510
     atom   23 type  2   force =     0.00000000    0.00000000    0.00023311
     atom   24 type  2   force =    -0.00000000   -0.00000000   -0.00023311
     atom   25 type  2   force =    -0.00000000    0.00021162   -0.00000000
     atom   26 type  2   force =    -0.00000000    0.00018510    0.00000000
     atom   27 type  2   force =    -0.00000000   -0.00021162   -0.00000000
     atom   28 type  2   force =    -0.00000000   -0.00018510    0.00000000
     atom   29 type  2   force =     0.00000000    0.00018510   -0.00000000
     atom   30 type  2   force =     0.00000000    0.00023311    0.00000000
     atom   31 type  2   force =     0.00000000   -0.00018510   -0.00000000
     atom   32 type  2   force =     0.00000000   -0.00023311   -0.00000000
     atom   33 type  2   force =     0.00021162   -0.00000000   -0.00000000
     atom   34 type  2   force =     0.00018510   -0.00000000    0.00000000
     atom   35 type  2   force =     0.00018510   -0.00000000   -0.00000000
     atom   36 type  2   force =     0.00023311    0.00000000    0.00000000
     atom   37 type  2   force =    -0.00021162   -0.00000000   -0.00000000
     atom   38 type  2   force =    -0.00018510   -0.00000000    0.00000000
     atom   39 type  2   force =    -0.00018510    0.00000000   -0.00000000
     atom   40 type  2   force =    -0.00023311    0.00000000   -0.00000000
     The core correction contribution to forces
     atom    1 type  1   force =    -0.00000002   -0.00000002   -0.00000002
     atom    2 type  1   force =    -0.00000002   -0.00000002    0.00000002
     atom    3 type  1   force =    -0.00000002    0.00000002   -0.00000002
     atom    4 type  1   force =    -0.00000002    0.00000002    0.00000002
     atom    5 type  1   force =     0.00000002   -0.00000002   -0.00000002
     atom    6 type  1   force =     0.00000002   -0.00000002    0.00000002
     atom    7 type  1   force =     0.00000002    0.00000002   -0.00000002
     atom    8 type  1   force =     0.00000002    0.00000002    0.00000002
     atom    9 type  3   force =     0.00000000    0.00000000    0.00000000
     atom   10 type  3   force =    -0.00000000   -0.00000000    0.00000000
     atom   11 type  3   force =    -0.00000000    0.00000000   -0.00000000
     atom   12 type  3   force =     0.00000000   -0.00000000   -0.00000000
     atom   13 type  3   force =     0.00000000   -0.00000000   -0.00000000
     atom   14 type  3   force =    -0.00000000    0.00000000   -0.00000000
     atom   15 type  3   force =    -0.00000000   -0.00000000    0.00000000
     atom   16 type  3   force =     0.00000000    0.00000000    0.00000000
     atom   17 type  2   force =     0.00000000    0.00000000    0.00000061
     atom   18 type  2   force =     0.00000000    0.00000000   -0.00000061
     atom   19 type  2   force =     0.00000000   -0.00000000    0.00000013
     atom   20 type  2   force =     0.00000000   -0.00000000   -0.00000013
     atom   21 type  2   force =    -0.00000000    0.00000000    0.00000013
     atom   22 type  2   force =    -0.00000000    0.00000000   -0.00000013
     atom   23 type  2   force =    -0.00000000   -0.00000000    0.00000129
     atom   24 type  2   force =     0.00000000    0.00000000   -0.00000129
     atom   25 type  2   force =     0.00000000    0.00000061    0.00000000
     atom   26 type  2   force =     0.00000000    0.00000013   -0.00000000
     atom   27 type  2   force =     0.00000000   -0.00000061    0.00000000
     atom   28 type  2   force =     0.00000000   -0.00000013   -0.00000000
     atom   29 type  2   force =    -0.00000000    0.00000013    0.00000000
     atom   30 type  2   force =    -0.00000000    0.00000129   -0.00000000
     atom   31 type  2   force =    -0.00000000   -0.00000013    0.00000000
     atom   32 type  2   force =     0.00000000   -0.00000129    0.00000000
     atom   33 type  2   force =     0.00000061    0.00000000    0.00000000
     atom   34 type  2   force =     0.00000013    0.00000000   -0.00000000
     atom   35 type  2   force =     0.00000013   -0.00000000    0.00000000
     atom   36 type  2   force =     0.00000129   -0.00000000   -0.00000000
     atom   37 type  2   force =    -0.00000061    0.00000000    0.00000000
     atom   38 type  2   force =    -0.00000013    0.00000000   -0.00000000
     atom   39 type  2   force =    -0.00000013   -0.00000000    0.00000000
     atom   40 type  2   force =    -0.00000129    0.00000000    0.00000000
     The Hubbard contrib.    to forces
     atom    1 type  1   force =     0.00000000    0.00000000    0.00000000
     atom    2 type  1   force =     0.00000000    0.00000000    0.00000000
     atom    3 type  1   force =     0.00000000    0.00000000    0.00000000
     atom    4 type  1   force =     0.00000000    0.00000000    0.00000000
     atom    5 type  1   force =     0.00000000    0.00000000    0.00000000
     atom    6 type  1   force =     0.00000000    0.00000000    0.00000000
     atom    7 type  1   force =     0.00000000    0.00000000    0.00000000
     atom    8 type  1   force =     0.00000000    0.00000000    0.00000000
     atom    9 type  3   force =     0.00000000    0.00000000    0.00000000
     atom   10 type  3   force =     0.00000000    0.00000000    0.00000000
     atom   11 type  3   force =     0.00000000    0.00000000    0.00000000
     atom   12 type  3   force =     0.00000000    0.00000000    0.00000000
     atom   13 type  3   force =     0.00000000    0.00000000    0.00000000
     atom   14 type  3   force =     0.00000000    0.00000000    0.00000000
     atom   15 type  3   force =     0.00000000    0.00000000    0.00000000
     atom   16 type  3   force =     0.00000000    0.00000000    0.00000000
     atom   17 type  2   force =     0.00000000    0.00000000    0.00000000
     atom   18 type  2   force =     0.00000000    0.00000000    0.00000000
     atom   19 type  2   force =     0.00000000    0.00000000    0.00000000
     atom   20 type  2   force =     0.00000000    0.00000000    0.00000000
     atom   21 type  2   force =     0.00000000    0.00000000    0.00000000
     atom   22 type  2   force =     0.00000000    0.00000000    0.00000000
     atom   23 type  2   force =     0.00000000    0.00000000    0.00000000
     atom   24 type  2   force =     0.00000000    0.00000000    0.00000000
     atom   25 type  2   force =     0.00000000    0.00000000    0.00000000
     atom   26 type  2   force =     0.00000000    0.00000000    0.00000000
     atom   27 type  2   force =     0.00000000    0.00000000    0.00000000
     atom   28 type  2   force =     0.00000000    0.00000000    0.00000000
     atom   29 type  2   force =     0.00000000    0.00000000    0.00000000
     atom   30 type  2   force =     0.00000000    0.00000000    0.00000000
     atom   31 type  2   force =     0.00000000    0.00000000    0.00000000
     atom   32 type  2   force =     0.00000000    0.00000000    0.00000000
     atom   33 type  2   force =     0.00000000    0.00000000    0.00000000
     atom   34 type  2   force =     0.00000000    0.00000000    0.00000000
     atom   35 type  2   force =     0.00000000    0.00000000    0.00000000
     atom   36 type  2   force =     0.00000000    0.00000000    0.00000000
     atom   37 type  2   force =     0.00000000    0.00000000    0.00000000
     atom   38 type  2   force =     0.00000000    0.00000000    0.00000000
     atom   39 type  2   force =     0.00000000    0.00000000    0.00000000
     atom   40 type  2   force =     0.00000000    0.00000000    0.00000000
     The SCF correction term to forces
     atom    1 type  1   force =     0.00000073    0.00000073    0.00000073
     atom    2 type  1   force =     0.00000073    0.00000073   -0.00000073
     atom    3 type  1   force =     0.00000073   -0.00000073    0.00000073
     atom    4 type  1   force =     0.00000073   -0.00000073   -0.00000073
     atom    5 type  1   force =    -0.00000073    0.00000073    0.00000073
     atom    6 type  1   force =    -0.00000073    0.00000073   -0.00000073
     atom    7 type  1   force =    -0.00000073   -0.00000073    0.00000073
     atom    8 type  1   force =    -0.00000073   -0.00000073   -0.00000073
     atom    9 type  3   force =    -0.00000000    0.00000000    0.00000000
     atom   10 type  3   force =    -0.00000000    0.00000000    0.00000000
     atom   11 type  3   force =    -0.00000000   -0.00000000   -0.00000000
     atom   12 type  3   force =    -0.00000000    0.00000000   -0.00000000
     atom   13 type  3   force =     0.00000000   -0.00000000   -0.00000000
     atom   14 type  3   force =     0.00000000   -0.00000000    0.00000000
     atom   15 type  3   force =     0.00000000   -0.00000000   -0.00000000
     atom   16 type  3   force =     0.00000000   -0.00000000    0.00000000
     atom   17 type  2   force =     0.00000000    0.00000000   -0.00000899
     atom   18 type  2   force =     0.00000000   -0.00000000    0.00000899
     atom   19 type  2   force =     0.00000000    0.00000000    0.00002130
     atom   20 type  2   force =     0.00000000    0.00000000   -0.00002130
     atom   21 type  2   force =    -0.00000000   -0.00000000    0.00002130
     atom   22 type  2   force =    -0.00000000   -0.00000000   -0.00002130
     atom   23 type  2   force =    -0.00000000    0.00000000   -0.00003071
     atom   24 type  2   force =    -0.00000000    0.00000000    0.00003071
     atom   25 type  2   force =     0.00000000   -0.00000899   -0.00000000
     atom   26 type  2   force =     0.00000000    0.00002130   -0.00000000
     atom   27 type  2   force =     0.00000000    0.00000899   -0.00000000
     atom   28 type  2   force =     0.00000000   -0.00002130    0.00000000
     atom   29 type  2   force =     0.00000000    0.00002130   -0.00000000
     atom   30 type  2   force =     0.00000000   -0.00003071    0.00000000
     atom   31 type  2   force =     0.00000000   -0.00002130   -0.00000000
     atom   32 type  2   force =     0.00000000    0.00003071    0.00000000
     atom   33 type  2   force =    -0.00000899    0.00000000   -0.00000000
     atom   34 type  2   force =     0.00002130    0.00000000    0.00000000
     atom   35 type  2   force =     0.00002130   -0.00000000   -0.00000000
     atom   36 type  2   force =    -0.00003071    0.00000000    0.00000000
     atom   37 type  2   force =     0.00000899   -0.00000000    0.00000000
     atom   38 type  2   force =    -0.00002130   -0.00000000    0.00000000
     atom   39 type  2   force =    -0.00002130    0.00000000    0.00000000
     atom   40 type  2   force =     0.00003071    0.00000000    0.00000000

     Total force =     0.000026     Total SCF correction =     0.000108
     SCF correction compared to forces is large: reduce conv_thr to get better values


     Computing stress (Cartesian axis) and pressure

          total   stress  (Ry/bohr**3)                   (kbar)     P=       -1.13
  -0.00000768   0.00000000   0.00000000           -1.13        0.00        0.00
   0.00000000  -0.00000768   0.00000000            0.00       -1.13        0.00
   0.00000000   0.00000000  -0.00000768            0.00        0.00       -1.13

     kinetic stress (kbar)   3466.38      0.00      0.00
                                0.00   3466.38      0.00
                                0.00      0.00   3466.38

     local   stress (kbar)   -368.47     -0.00     -0.00
                               -0.00   -368.47     -0.00
                               -0.00     -0.00   -368.47

     nonloc. stress (kbar)    873.32      0.00      0.00
                                0.00    873.32      0.00
                                0.00      0.00    873.32

     hartree stress (kbar)   1922.11      0.00      0.00
                                0.00   1922.11      0.00
                                0.00      0.00   1922.11

     exc-cor stress (kbar)  12007.90      0.00      0.00
                                0.00  12007.90      0.00
                                0.00      0.00  12007.90

     corecor stress (kbar) -13606.35      0.00     -0.00
                                0.00 -13606.35      0.00
                               -0.00      0.00 -13606.35

     ewald   stress (kbar)  -4296.03     -0.00      0.00
                               -0.00  -4296.03     -0.00
                                0.00     -0.00  -4296.03

     hubbard stress (kbar)      0.00      0.00      0.00
                                0.00      0.00      0.00
                                0.00      0.00      0.00

     DFT-D   stress (kbar)      0.00      0.00      0.00
                                0.00      0.00      0.00
                                0.00      0.00      0.00

     XDM     stress (kbar)      0.00      0.00      0.00
                                0.00      0.00      0.00
                                0.00      0.00      0.00

     dft-nl  stress (kbar)      0.00      0.00      0.00
                                0.00      0.00      0.00
                                0.00      0.00      0.00

     TS-vdW  stress (kbar)      0.00      0.00      0.00
                                0.00      0.00      0.00
                                0.00      0.00      0.00



     Writing output data file ../../out/aiida.save/

     init_run     :    219.94s CPU    222.93s WALL (       1 calls)
     electrons    :   7401.75s CPU   7465.25s WALL (       1 calls)
     forces       :    155.99s CPU    158.79s WALL (       1 calls)
     stress       :    236.63s CPU    244.31s WALL (       1 calls)

     Called by init_run:
     wfcinit      :    199.42s CPU    199.99s WALL (       1 calls)
     wfcinit:atom :      0.32s CPU      0.45s WALL (       4 calls)
     wfcinit:wfcr :    196.94s CPU    197.17s WALL (       4 calls)
     potinit      :      4.12s CPU      4.34s WALL (       1 calls)
     hinit0       :      1.68s CPU      1.73s WALL (       1 calls)

     Called by electrons:
     c_bands      :   6476.34s CPU   6486.87s WALL (      12 calls)
     sum_band     :    726.57s CPU    755.35s WALL (      12 calls)
     v_of_rho     :     19.53s CPU     21.03s WALL (      12 calls)
     v_h          :      1.24s CPU      1.25s WALL (      12 calls)
     v_xc         :     21.34s CPU     23.18s WALL (      14 calls)
     newd         :    168.22s CPU    193.10s WALL (      12 calls)
     PAW_pot      :     24.52s CPU     24.52s WALL (      12 calls)
     mix_rho      :      2.60s CPU      2.62s WALL (      12 calls)

     Called by c_bands:
     init_us_2    :      7.20s CPU      7.27s WALL (     108 calls)
     cegterg      :   6435.80s CPU   6446.29s WALL (      48 calls)

     Called by sum_band:
     sum_band:wei :      0.01s CPU      0.01s WALL (      12 calls)
     sum_band:loo :    465.96s CPU    466.12s WALL (      12 calls)
     sum_band:buf :      1.32s CPU      1.32s WALL (      48 calls)
     sum_band:ini :      3.18s CPU      3.18s WALL (      48 calls)
     sum_band:cal :    324.87s CPU    324.89s WALL (      48 calls)
     sum_band:bec :      0.14s CPU      0.14s WALL (      48 calls)
     addusdens    :    258.13s CPU    286.74s WALL (      12 calls)
     addusd:skk   :      2.74s CPU      4.88s WALL (      36 calls)
     addusd:dgemm :    167.66s CPU    189.38s WALL (      36 calls)
     addusd:qvan2 :     82.31s CPU     82.32s WALL (      36 calls)

     Called by *egterg:
     cdiaghg      :     55.37s CPU     55.37s WALL (     333 calls)
     cegterg:over :    839.82s CPU    839.89s WALL (     289 calls)
     cegterg:upda :    540.80s CPU    542.34s WALL (     289 calls)
     cegterg:last :   1321.76s CPU   1321.86s WALL (     104 calls)
     h_psi        :   2541.13s CPU   2544.53s WALL (     341 calls)
     s_psi        :    968.99s CPU    969.06s WALL (     341 calls)
     g_psi        :      9.01s CPU      9.01s WALL (     289 calls)

     Called by h_psi:
     h_psi:calbec :    885.95s CPU    886.01s WALL (     341 calls)
     vloc_psi     :    683.16s CPU    683.71s WALL (     341 calls)
     add_vuspsi   :    968.51s CPU    968.58s WALL (     341 calls)

     General routines
     calbec       :   1347.36s CPU   1347.45s WALL (     409 calls)
     fft          :     12.92s CPU     12.92s WALL (     180 calls)
     ffts         :      0.37s CPU      0.37s WALL (      24 calls)
     fftw         :    704.45s CPU    704.88s WALL (   65330 calls)
     interpolate  :      1.28s CPU      1.29s WALL (      12 calls)

     Parallel routines

     PAW routines
     PAW_pot      :     24.52s CPU     24.52s WALL (      12 calls)
     PAW_symme    :      0.06s CPU      0.06s WALL (      24 calls)

     PWSCF        :      2h13m CPU      2h14m WALL


   This run was terminated on:  21:41:42   1Apr2024            

=------------------------------------------------------------------------------=
   JOB DONE.
=------------------------------------------------------------------------------=
