### Running on host: fes33

     Program PWSCF v.6.7MaX starts on  1Apr2024 at 15: 0: 4 

     This program is part of the open-source Quantum ESPRESSO suite
     for quantum simulation of materials; please cite
         "P. Giannozzi et al., J. Phys.:Condens. Matter 21 395502 (2009);
         "P. Giannozzi et al., J. Phys.:Condens. Matter 29 465901 (2017);
          URL http://www.quantum-espresso.org", 
     in publications or presentations arising from this work. More details at
     http://www.quantum-espresso.org/quote

     Parallel version (MPI), running on     1 processors

     MPI processes distributed on     1 nodes
     Reading input from pwscf_ecutwfc-20.in

     Current dimensions of program PWSCF are:
     Max number of different atomic species (ntypx) = 10
     Max number of k-points (npk) =  40000
     Max angular momentum in pseudopotentials (lmaxx) =  3
     file Pb.pbe-dn-kjpaw_psl.0.2.2.UPF: wavefunction(s)  6S renormalized

     Subspace diagonalization in iterative solution of the eigenvalue problem:
     a serial algorithm will be used

     Found symmetry operation: I + (  0.0000  0.0000  0.5000)
     This is a supercell, fractional translations are disabled
     Message from routine setup:
     using ibrav=0 with symmetry is DISCOURAGED, use correct ibrav instead

     G-vector sticks info
     --------------------
     sticks:   dense  smooth     PW     G-vecs:    dense   smooth      PW
     Sum       14817    3705    989              1356433   169437   23439



     bravais-lattice index     =            0
     lattice parameter (alat)  =      24.1188  a.u.
     unit-cell volume          =   14030.3801 (a.u.)^3
     number of atoms/cell      =           40
     number of atomic types    =            3
     number of electrons       =       352.00
     number of Kohn-Sham states=          211
     kinetic-energy cutoff     =      20.0000  Ry
     charge density cutoff     =     320.0000  Ry
     scf convergence threshold =      8.0E-09
     mixing beta               =       0.4000
     number of iterations used =            8  plain     mixing
     Exchange-correlation= SLA  PW   PBX  PBC
                           (   1   4   3   4   0   0   0)

     celldm(1)=  24.118843  celldm(2)=   0.000000  celldm(3)=   0.000000
     celldm(4)=   0.000000  celldm(5)=   0.000000  celldm(6)=   0.000000

     crystal axes: (cart. coord. in units of alat)
               a(1) = (   1.000000   0.000000   0.000000 )  
               a(2) = (   0.000000   1.000000   0.000000 )  
               a(3) = (   0.000000   0.000000   1.000000 )  

     reciprocal axes: (cart. coord. in units 2 pi/alat)
               b(1) = (  1.000000  0.000000  0.000000 )  
               b(2) = (  0.000000  1.000000  0.000000 )  
               b(3) = (  0.000000  0.000000  1.000000 )  


     PseudoPot. # 1 for Cs read from file:
     ../../pseudo/Cs_pbe_v1.uspp.F.UPF
     MD5 check sum: 3476d69cb178dfad3ffaa59df4e07ca4
     Pseudo is Ultrasoft + core correction, Zval =  9.0
     Generated by new atomic code, or converted to UPF format
     Using radial grid of  905 points,  6 beta functions with: 
                l(1) =   0
                l(2) =   0
                l(3) =   1
                l(4) =   1
                l(5) =   2
                l(6) =   2
     Q(r) pseudized with  6 coefficients,  rinner =    1.500   1.500   1.500
                                                       1.500   1.500

     PseudoPot. # 2 for I  read from file:
     ../../pseudo/I.pbe-n-kjpaw_psl.0.2.UPF
     MD5 check sum: d4ef18d9c8f18dc85e5843bca1e50dc0
     Pseudo is Projector augmented-wave + core cor, Zval =  7.0
     Generated using "atomic" code by A. Dal Corso  v.5.0.99 svn rev. 10869
     Shape of augmentation charge: PSQ
     Using radial grid of 1247 points,  4 beta functions with: 
                l(1) =   0
                l(2) =   0
                l(3) =   1
                l(4) =   1
     Q(r) pseudized with 0 coefficients 


     PseudoPot. # 3 for Pb read from file:
     ../../pseudo/Pb.pbe-dn-kjpaw_psl.0.2.2.UPF
     MD5 check sum: 9d431e6316058b74ade52399a6cf67da
     Pseudo is Projector augmented-wave + core cor, Zval = 14.0
     Generated using "atomic" code by A. Dal Corso  v.5.0.99 svn rev. 10869
     Shape of augmentation charge: PSQ
     Using radial grid of 1281 points,  6 beta functions with: 
                l(1) =   0
                l(2) =   0
                l(3) =   1
                l(4) =   1
                l(5) =   2
                l(6) =   2
     Q(r) pseudized with 0 coefficients 


     atomic species   valence    mass     pseudopotential
        Cs             9.00   132.90545     Cs( 1.00)
        I              7.00   126.90447     I ( 1.00)
        Pb            14.00   207.20000     Pb( 1.00)

     48 Sym. Ops., with inversion, found


                                    s                        frac. trans.

      isym =  1     identity                                     

 cryst.   s( 1) = (     1          0          0      )
                  (     0          1          0      )
                  (     0          0          1      )

 cart.    s( 1) = (  1.0000000  0.0000000  0.0000000 )
                  (  0.0000000  1.0000000  0.0000000 )
                  (  0.0000000  0.0000000  1.0000000 )


      isym =  2     180 deg rotation - cart. axis [0,0,1]        

 cryst.   s( 2) = (    -1          0          0      )
                  (     0         -1          0      )
                  (     0          0          1      )

 cart.    s( 2) = ( -1.0000000  0.0000000  0.0000000 )
                  (  0.0000000 -1.0000000  0.0000000 )
                  (  0.0000000  0.0000000  1.0000000 )


      isym =  3     180 deg rotation - cart. axis [0,1,0]        

 cryst.   s( 3) = (    -1          0          0      )
                  (     0          1          0      )
                  (     0          0         -1      )

 cart.    s( 3) = ( -1.0000000  0.0000000  0.0000000 )
                  (  0.0000000  1.0000000  0.0000000 )
                  (  0.0000000  0.0000000 -1.0000000 )


      isym =  4     180 deg rotation - cart. axis [1,0,0]        

 cryst.   s( 4) = (     1          0          0      )
                  (     0         -1          0      )
                  (     0          0         -1      )

 cart.    s( 4) = (  1.0000000  0.0000000  0.0000000 )
                  (  0.0000000 -1.0000000  0.0000000 )
                  (  0.0000000  0.0000000 -1.0000000 )


      isym =  5     180 deg rotation - cart. axis [1,1,0]        

 cryst.   s( 5) = (     0          1          0      )
                  (     1          0          0      )
                  (     0          0         -1      )

 cart.    s( 5) = (  0.0000000  1.0000000  0.0000000 )
                  (  1.0000000  0.0000000  0.0000000 )
                  (  0.0000000  0.0000000 -1.0000000 )


      isym =  6     180 deg rotation - cart. axis [1,-1,0]       

 cryst.   s( 6) = (     0         -1          0      )
                  (    -1          0          0      )
                  (     0          0         -1      )

 cart.    s( 6) = (  0.0000000 -1.0000000  0.0000000 )
                  ( -1.0000000  0.0000000  0.0000000 )
                  (  0.0000000  0.0000000 -1.0000000 )


      isym =  7      90 deg rotation - cart. axis [0,0,-1]       

 cryst.   s( 7) = (     0         -1          0      )
                  (     1          0          0      )
                  (     0          0          1      )

 cart.    s( 7) = (  0.0000000  1.0000000  0.0000000 )
                  ( -1.0000000  0.0000000  0.0000000 )
                  (  0.0000000  0.0000000  1.0000000 )


      isym =  8      90 deg rotation - cart. axis [0,0,1]        

 cryst.   s( 8) = (     0          1          0      )
                  (    -1          0          0      )
                  (     0          0          1      )

 cart.    s( 8) = (  0.0000000 -1.0000000  0.0000000 )
                  (  1.0000000  0.0000000  0.0000000 )
                  (  0.0000000  0.0000000  1.0000000 )


      isym =  9     180 deg rotation - cart. axis [1,0,1]        

 cryst.   s( 9) = (     0          0          1      )
                  (     0         -1          0      )
                  (     1          0          0      )

 cart.    s( 9) = (  0.0000000  0.0000000  1.0000000 )
                  (  0.0000000 -1.0000000  0.0000000 )
                  (  1.0000000  0.0000000  0.0000000 )


      isym = 10     180 deg rotation - cart. axis [-1,0,1]       

 cryst.   s(10) = (     0          0         -1      )
                  (     0         -1          0      )
                  (    -1          0          0      )

 cart.    s(10) = (  0.0000000  0.0000000 -1.0000000 )
                  (  0.0000000 -1.0000000  0.0000000 )
                  ( -1.0000000  0.0000000  0.0000000 )


      isym = 11      90 deg rotation - cart. axis [0,1,0]        

 cryst.   s(11) = (     0          0         -1      )
                  (     0          1          0      )
                  (     1          0          0      )

 cart.    s(11) = (  0.0000000  0.0000000  1.0000000 )
                  (  0.0000000  1.0000000  0.0000000 )
                  ( -1.0000000  0.0000000  0.0000000 )


      isym = 12      90 deg rotation - cart. axis [0,-1,0]       

 cryst.   s(12) = (     0          0          1      )
                  (     0          1          0      )
                  (    -1          0          0      )

 cart.    s(12) = (  0.0000000  0.0000000 -1.0000000 )
                  (  0.0000000  1.0000000  0.0000000 )
                  (  1.0000000  0.0000000  0.0000000 )


      isym = 13     180 deg rotation - cart. axis [0,1,1]        

 cryst.   s(13) = (    -1          0          0      )
                  (     0          0          1      )
                  (     0          1          0      )

 cart.    s(13) = ( -1.0000000  0.0000000  0.0000000 )
                  (  0.0000000  0.0000000  1.0000000 )
                  (  0.0000000  1.0000000  0.0000000 )


      isym = 14     180 deg rotation - cart. axis [0,1,-1]       

 cryst.   s(14) = (    -1          0          0      )
                  (     0          0         -1      )
                  (     0         -1          0      )

 cart.    s(14) = ( -1.0000000  0.0000000  0.0000000 )
                  (  0.0000000  0.0000000 -1.0000000 )
                  (  0.0000000 -1.0000000  0.0000000 )


      isym = 15      90 deg rotation - cart. axis [-1,0,0]       

 cryst.   s(15) = (     1          0          0      )
                  (     0          0         -1      )
                  (     0          1          0      )

 cart.    s(15) = (  1.0000000  0.0000000  0.0000000 )
                  (  0.0000000  0.0000000  1.0000000 )
                  (  0.0000000 -1.0000000  0.0000000 )


      isym = 16      90 deg rotation - cart. axis [1,0,0]        

 cryst.   s(16) = (     1          0          0      )
                  (     0          0          1      )
                  (     0         -1          0      )

 cart.    s(16) = (  1.0000000  0.0000000  0.0000000 )
                  (  0.0000000  0.0000000 -1.0000000 )
                  (  0.0000000  1.0000000  0.0000000 )


      isym = 17     120 deg rotation - cart. axis [-1,-1,-1]     

 cryst.   s(17) = (     0          0          1      )
                  (     1          0          0      )
                  (     0          1          0      )

 cart.    s(17) = (  0.0000000  1.0000000  0.0000000 )
                  (  0.0000000  0.0000000  1.0000000 )
                  (  1.0000000  0.0000000  0.0000000 )


      isym = 18     120 deg rotation - cart. axis [-1,1,1]       

 cryst.   s(18) = (     0          0         -1      )
                  (    -1          0          0      )
                  (     0          1          0      )

 cart.    s(18) = (  0.0000000 -1.0000000  0.0000000 )
                  (  0.0000000  0.0000000  1.0000000 )
                  ( -1.0000000  0.0000000  0.0000000 )


      isym = 19     120 deg rotation - cart. axis [1,1,-1]       

 cryst.   s(19) = (     0          0         -1      )
                  (     1          0          0      )
                  (     0         -1          0      )

 cart.    s(19) = (  0.0000000  1.0000000  0.0000000 )
                  (  0.0000000  0.0000000 -1.0000000 )
                  ( -1.0000000  0.0000000  0.0000000 )


      isym = 20     120 deg rotation - cart. axis [1,-1,1]       

 cryst.   s(20) = (     0          0          1      )
                  (    -1          0          0      )
                  (     0         -1          0      )

 cart.    s(20) = (  0.0000000 -1.0000000  0.0000000 )
                  (  0.0000000  0.0000000 -1.0000000 )
                  (  1.0000000  0.0000000  0.0000000 )


      isym = 21     120 deg rotation - cart. axis [1,1,1]        

 cryst.   s(21) = (     0          1          0      )
                  (     0          0          1      )
                  (     1          0          0      )

 cart.    s(21) = (  0.0000000  0.0000000  1.0000000 )
                  (  1.0000000  0.0000000  0.0000000 )
                  (  0.0000000  1.0000000  0.0000000 )


      isym = 22     120 deg rotation - cart. axis [-1,1,-1]      

 cryst.   s(22) = (     0         -1          0      )
                  (     0          0         -1      )
                  (     1          0          0      )

 cart.    s(22) = (  0.0000000  0.0000000  1.0000000 )
                  ( -1.0000000  0.0000000  0.0000000 )
                  (  0.0000000 -1.0000000  0.0000000 )


      isym = 23     120 deg rotation - cart. axis [1,-1,-1]      

 cryst.   s(23) = (     0         -1          0      )
                  (     0          0          1      )
                  (    -1          0          0      )

 cart.    s(23) = (  0.0000000  0.0000000 -1.0000000 )
                  ( -1.0000000  0.0000000  0.0000000 )
                  (  0.0000000  1.0000000  0.0000000 )


      isym = 24     120 deg rotation - cart. axis [-1,-1,1]      

 cryst.   s(24) = (     0          1          0      )
                  (     0          0         -1      )
                  (    -1          0          0      )

 cart.    s(24) = (  0.0000000  0.0000000 -1.0000000 )
                  (  1.0000000  0.0000000  0.0000000 )
                  (  0.0000000 -1.0000000  0.0000000 )


      isym = 25     inversion                                    

 cryst.   s(25) = (    -1          0          0      )
                  (     0         -1          0      )
                  (     0          0         -1      )

 cart.    s(25) = ( -1.0000000  0.0000000  0.0000000 )
                  (  0.0000000 -1.0000000  0.0000000 )
                  (  0.0000000  0.0000000 -1.0000000 )


      isym = 26     inv. 180 deg rotation - cart. axis [0,0,1]   

 cryst.   s(26) = (     1          0          0      )
                  (     0          1          0      )
                  (     0          0         -1      )

 cart.    s(26) = (  1.0000000  0.0000000  0.0000000 )
                  (  0.0000000  1.0000000  0.0000000 )
                  (  0.0000000  0.0000000 -1.0000000 )


      isym = 27     inv. 180 deg rotation - cart. axis [0,1,0]   

 cryst.   s(27) = (     1          0          0      )
                  (     0         -1          0      )
                  (     0          0          1      )

 cart.    s(27) = (  1.0000000  0.0000000  0.0000000 )
                  (  0.0000000 -1.0000000  0.0000000 )
                  (  0.0000000  0.0000000  1.0000000 )


      isym = 28     inv. 180 deg rotation - cart. axis [1,0,0]   

 cryst.   s(28) = (    -1          0          0      )
                  (     0          1          0      )
                  (     0          0          1      )

 cart.    s(28) = ( -1.0000000  0.0000000  0.0000000 )
                  (  0.0000000  1.0000000  0.0000000 )
                  (  0.0000000  0.0000000  1.0000000 )


      isym = 29     inv. 180 deg rotation - cart. axis [1,1,0]   

 cryst.   s(29) = (     0         -1          0      )
                  (    -1          0          0      )
                  (     0          0          1      )

 cart.    s(29) = (  0.0000000 -1.0000000  0.0000000 )
                  ( -1.0000000  0.0000000  0.0000000 )
                  (  0.0000000  0.0000000  1.0000000 )


      isym = 30     inv. 180 deg rotation - cart. axis [1,-1,0]  

 cryst.   s(30) = (     0          1          0      )
                  (     1          0          0      )
                  (     0          0          1      )

 cart.    s(30) = (  0.0000000  1.0000000  0.0000000 )
                  (  1.0000000  0.0000000  0.0000000 )
                  (  0.0000000  0.0000000  1.0000000 )


      isym = 31     inv.  90 deg rotation - cart. axis [0,0,-1]  

 cryst.   s(31) = (     0          1          0      )
                  (    -1          0          0      )
                  (     0          0         -1      )

 cart.    s(31) = (  0.0000000 -1.0000000  0.0000000 )
                  (  1.0000000  0.0000000  0.0000000 )
                  (  0.0000000  0.0000000 -1.0000000 )


      isym = 32     inv.  90 deg rotation - cart. axis [0,0,1]   

 cryst.   s(32) = (     0         -1          0      )
                  (     1          0          0      )
                  (     0          0         -1      )

 cart.    s(32) = (  0.0000000  1.0000000  0.0000000 )
                  ( -1.0000000  0.0000000  0.0000000 )
                  (  0.0000000  0.0000000 -1.0000000 )


      isym = 33     inv. 180 deg rotation - cart. axis [1,0,1]   

 cryst.   s(33) = (     0          0         -1      )
                  (     0          1          0      )
                  (    -1          0          0      )

 cart.    s(33) = (  0.0000000  0.0000000 -1.0000000 )
                  (  0.0000000  1.0000000  0.0000000 )
                  ( -1.0000000  0.0000000  0.0000000 )


      isym = 34     inv. 180 deg rotation - cart. axis [-1,0,1]  

 cryst.   s(34) = (     0          0          1      )
                  (     0          1          0      )
                  (     1          0          0      )

 cart.    s(34) = (  0.0000000  0.0000000  1.0000000 )
                  (  0.0000000  1.0000000  0.0000000 )
                  (  1.0000000  0.0000000  0.0000000 )


      isym = 35     inv.  90 deg rotation - cart. axis [0,1,0]   

 cryst.   s(35) = (     0          0          1      )
                  (     0         -1          0      )
                  (    -1          0          0      )

 cart.    s(35) = (  0.0000000  0.0000000 -1.0000000 )
                  (  0.0000000 -1.0000000  0.0000000 )
                  (  1.0000000  0.0000000  0.0000000 )


      isym = 36     inv.  90 deg rotation - cart. axis [0,-1,0]  

 cryst.   s(36) = (     0          0         -1      )
                  (     0         -1          0      )
                  (     1          0          0      )

 cart.    s(36) = (  0.0000000  0.0000000  1.0000000 )
                  (  0.0000000 -1.0000000  0.0000000 )
                  ( -1.0000000  0.0000000  0.0000000 )


      isym = 37     inv. 180 deg rotation - cart. axis [0,1,1]   

 cryst.   s(37) = (     1          0          0      )
                  (     0          0         -1      )
                  (     0         -1          0      )

 cart.    s(37) = (  1.0000000  0.0000000  0.0000000 )
                  (  0.0000000  0.0000000 -1.0000000 )
                  (  0.0000000 -1.0000000  0.0000000 )


      isym = 38     inv. 180 deg rotation - cart. axis [0,1,-1]  

 cryst.   s(38) = (     1          0          0      )
                  (     0          0          1      )
                  (     0          1          0      )

 cart.    s(38) = (  1.0000000  0.0000000  0.0000000 )
                  (  0.0000000  0.0000000  1.0000000 )
                  (  0.0000000  1.0000000  0.0000000 )


      isym = 39     inv.  90 deg rotation - cart. axis [-1,0,0]  

 cryst.   s(39) = (    -1          0          0      )
                  (     0          0          1      )
                  (     0         -1          0      )

 cart.    s(39) = ( -1.0000000  0.0000000  0.0000000 )
                  (  0.0000000  0.0000000 -1.0000000 )
                  (  0.0000000  1.0000000  0.0000000 )


      isym = 40     inv.  90 deg rotation - cart. axis [1,0,0]   

 cryst.   s(40) = (    -1          0          0      )
                  (     0          0         -1      )
                  (     0          1          0      )

 cart.    s(40) = ( -1.0000000  0.0000000  0.0000000 )
                  (  0.0000000  0.0000000  1.0000000 )
                  (  0.0000000 -1.0000000  0.0000000 )


      isym = 41     inv. 120 deg rotation - cart. axis [-1,-1,-1]

 cryst.   s(41) = (     0          0         -1      )
                  (    -1          0          0      )
                  (     0         -1          0      )

 cart.    s(41) = (  0.0000000 -1.0000000  0.0000000 )
                  (  0.0000000  0.0000000 -1.0000000 )
                  ( -1.0000000  0.0000000  0.0000000 )


      isym = 42     inv. 120 deg rotation - cart. axis [-1,1,1]  

 cryst.   s(42) = (     0          0          1      )
                  (     1          0          0      )
                  (     0         -1          0      )

 cart.    s(42) = (  0.0000000  1.0000000  0.0000000 )
                  (  0.0000000  0.0000000 -1.0000000 )
                  (  1.0000000  0.0000000  0.0000000 )


      isym = 43     inv. 120 deg rotation - cart. axis [1,1,-1]  

 cryst.   s(43) = (     0          0          1      )
                  (    -1          0          0      )
                  (     0          1          0      )

 cart.    s(43) = (  0.0000000 -1.0000000  0.0000000 )
                  (  0.0000000  0.0000000  1.0000000 )
                  (  1.0000000  0.0000000  0.0000000 )


      isym = 44     inv. 120 deg rotation - cart. axis [1,-1,1]  

 cryst.   s(44) = (     0          0         -1      )
                  (     1          0          0      )
                  (     0          1          0      )

 cart.    s(44) = (  0.0000000  1.0000000  0.0000000 )
                  (  0.0000000  0.0000000  1.0000000 )
                  ( -1.0000000  0.0000000  0.0000000 )


      isym = 45     inv. 120 deg rotation - cart. axis [1,1,1]   

 cryst.   s(45) = (     0         -1          0      )
                  (     0          0         -1      )
                  (    -1          0          0      )

 cart.    s(45) = (  0.0000000  0.0000000 -1.0000000 )
                  ( -1.0000000  0.0000000  0.0000000 )
                  (  0.0000000 -1.0000000  0.0000000 )


      isym = 46     inv. 120 deg rotation - cart. axis [-1,1,-1] 

 cryst.   s(46) = (     0          1          0      )
                  (     0          0          1      )
                  (    -1          0          0      )

 cart.    s(46) = (  0.0000000  0.0000000 -1.0000000 )
                  (  1.0000000  0.0000000  0.0000000 )
                  (  0.0000000  1.0000000  0.0000000 )


      isym = 47     inv. 120 deg rotation - cart. axis [1,-1,-1] 

 cryst.   s(47) = (     0          1          0      )
                  (     0          0         -1      )
                  (     1          0          0      )

 cart.    s(47) = (  0.0000000  0.0000000  1.0000000 )
                  (  1.0000000  0.0000000  0.0000000 )
                  (  0.0000000 -1.0000000  0.0000000 )


      isym = 48     inv. 120 deg rotation - cart. axis [-1,-1,1] 

 cryst.   s(48) = (     0         -1          0      )
                  (     0          0          1      )
                  (     1          0          0      )

 cart.    s(48) = (  0.0000000  0.0000000  1.0000000 )
                  ( -1.0000000  0.0000000  0.0000000 )
                  (  0.0000000  1.0000000  0.0000000 )


   Cartesian axes

     site n.     atom                  positions (alat units)
         1           Cs  tau(   1) = (   0.2500001   0.2500001   0.2500001  )
         2           Cs  tau(   2) = (   0.2500001   0.2500001   0.7499999  )
         3           Cs  tau(   3) = (   0.2500001   0.7499999   0.2500001  )
         4           Cs  tau(   4) = (   0.2500001   0.7499999   0.7499999  )
         5           Cs  tau(   5) = (   0.7499999   0.2500001   0.2500001  )
         6           Cs  tau(   6) = (   0.7499999   0.2500001   0.7499999  )
         7           Cs  tau(   7) = (   0.7499999   0.7499999   0.2500001  )
         8           Cs  tau(   8) = (   0.7499999   0.7499999   0.7499999  )
         9           Pb  tau(   9) = (   0.0000000   0.0000000   0.0000000  )
        10           Pb  tau(  10) = (   0.0000000   0.0000000   0.5000000  )
        11           Pb  tau(  11) = (   0.0000000   0.5000000   0.0000000  )
        12           Pb  tau(  12) = (   0.0000000   0.5000000   0.5000000  )
        13           Pb  tau(  13) = (   0.5000000   0.0000000   0.0000000  )
        14           Pb  tau(  14) = (   0.5000000   0.0000000   0.5000000  )
        15           Pb  tau(  15) = (   0.5000000   0.5000000   0.0000000  )
        16           Pb  tau(  16) = (   0.5000000   0.5000000   0.5000000  )
        17           I   tau(  17) = (   0.0000000   0.0000000   0.2500016  )
        18           I   tau(  18) = (   0.0000000   0.0000000   0.7499984  )
        19           I   tau(  19) = (   0.0000000   0.5000000   0.2500017  )
        20           I   tau(  20) = (   0.0000000   0.5000000   0.7499983  )
        21           I   tau(  21) = (   0.5000000   0.0000000   0.2500017  )
        22           I   tau(  22) = (   0.5000000   0.0000000   0.7499983  )
        23           I   tau(  23) = (   0.5000000   0.5000000   0.2500017  )
        24           I   tau(  24) = (   0.5000000   0.5000000   0.7499983  )
        25           I   tau(  25) = (   0.0000000   0.2500016   0.0000000  )
        26           I   tau(  26) = (   0.0000000   0.2500017   0.5000000  )
        27           I   tau(  27) = (   0.0000000   0.7499984   0.0000000  )
        28           I   tau(  28) = (   0.0000000   0.7499983   0.5000000  )
        29           I   tau(  29) = (   0.5000000   0.2500017   0.0000000  )
        30           I   tau(  30) = (   0.5000000   0.2500017   0.5000000  )
        31           I   tau(  31) = (   0.5000000   0.7499983   0.0000000  )
        32           I   tau(  32) = (   0.5000000   0.7499983   0.5000000  )
        33           I   tau(  33) = (   0.2500016   0.0000000   0.0000000  )
        34           I   tau(  34) = (   0.2500017   0.0000000   0.5000000  )
        35           I   tau(  35) = (   0.2500017   0.5000000   0.0000000  )
        36           I   tau(  36) = (   0.2500017   0.5000000   0.5000000  )
        37           I   tau(  37) = (   0.7499984   0.0000000   0.0000000  )
        38           I   tau(  38) = (   0.7499983   0.0000000   0.5000000  )
        39           I   tau(  39) = (   0.7499983   0.5000000   0.0000000  )
        40           I   tau(  40) = (   0.7499983   0.5000000   0.5000000  )

   Crystallographic axes

     site n.     atom                  positions (cryst. coord.)
         1           Cs  tau(   1) = (  0.2500001  0.2500001  0.2500001  )
         2           Cs  tau(   2) = (  0.2500001  0.2500001  0.7499999  )
         3           Cs  tau(   3) = (  0.2500001  0.7499999  0.2500001  )
         4           Cs  tau(   4) = (  0.2500001  0.7499999  0.7499999  )
         5           Cs  tau(   5) = (  0.7499999  0.2500001  0.2500001  )
         6           Cs  tau(   6) = (  0.7499999  0.2500001  0.7499999  )
         7           Cs  tau(   7) = (  0.7499999  0.7499999  0.2500001  )
         8           Cs  tau(   8) = (  0.7499999  0.7499999  0.7499999  )
         9           Pb  tau(   9) = (  0.0000000  0.0000000  0.0000000  )
        10           Pb  tau(  10) = (  0.0000000  0.0000000  0.5000000  )
        11           Pb  tau(  11) = (  0.0000000  0.5000000  0.0000000  )
        12           Pb  tau(  12) = (  0.0000000  0.5000000  0.5000000  )
        13           Pb  tau(  13) = (  0.5000000  0.0000000  0.0000000  )
        14           Pb  tau(  14) = (  0.5000000  0.0000000  0.5000000  )
        15           Pb  tau(  15) = (  0.5000000  0.5000000  0.0000000  )
        16           Pb  tau(  16) = (  0.5000000  0.5000000  0.5000000  )
        17           I   tau(  17) = (  0.0000000  0.0000000  0.2500016  )
        18           I   tau(  18) = (  0.0000000  0.0000000  0.7499984  )
        19           I   tau(  19) = (  0.0000000  0.5000000  0.2500017  )
        20           I   tau(  20) = (  0.0000000  0.5000000  0.7499983  )
        21           I   tau(  21) = (  0.5000000  0.0000000  0.2500017  )
        22           I   tau(  22) = (  0.5000000  0.0000000  0.7499983  )
        23           I   tau(  23) = (  0.5000000  0.5000000  0.2500017  )
        24           I   tau(  24) = (  0.5000000  0.5000000  0.7499983  )
        25           I   tau(  25) = (  0.0000000  0.2500016  0.0000000  )
        26           I   tau(  26) = (  0.0000000  0.2500017  0.5000000  )
        27           I   tau(  27) = (  0.0000000  0.7499984  0.0000000  )
        28           I   tau(  28) = (  0.0000000  0.7499983  0.5000000  )
        29           I   tau(  29) = (  0.5000000  0.2500017  0.0000000  )
        30           I   tau(  30) = (  0.5000000  0.2500017  0.5000000  )
        31           I   tau(  31) = (  0.5000000  0.7499983  0.0000000  )
        32           I   tau(  32) = (  0.5000000  0.7499983  0.5000000  )
        33           I   tau(  33) = (  0.2500016  0.0000000  0.0000000  )
        34           I   tau(  34) = (  0.2500017  0.0000000  0.5000000  )
        35           I   tau(  35) = (  0.2500017  0.5000000  0.0000000  )
        36           I   tau(  36) = (  0.2500017  0.5000000  0.5000000  )
        37           I   tau(  37) = (  0.7499984  0.0000000  0.0000000  )
        38           I   tau(  38) = (  0.7499983  0.0000000  0.5000000  )
        39           I   tau(  39) = (  0.7499983  0.5000000  0.0000000  )
        40           I   tau(  40) = (  0.7499983  0.5000000  0.5000000  )

     number of k points=     4  Marzari-Vanderbilt smearing, width (Ry)=  0.0147
                       cart. coord. in units 2pi/alat
        k(    1) = (   0.0000000   0.0000000   0.0000000), wk =   0.0740741
        k(    2) = (   0.0000000   0.0000000   0.3333333), wk =   0.4444444
        k(    3) = (   0.0000000   0.3333333   0.3333333), wk =   0.8888889
        k(    4) = (   0.3333333   0.3333333   0.3333333), wk =   0.5925926

                       cryst. coord.
        k(    1) = (   0.0000000   0.0000000   0.0000000), wk =   0.0740741
        k(    2) = (   0.0000000   0.0000000   0.3333333), wk =   0.4444444
        k(    3) = (   0.0000000   0.3333333   0.3333333), wk =   0.8888889
        k(    4) = (   0.3333333   0.3333333   0.3333333), wk =   0.5925926

     Dense  grid:  1356433 G-vectors     FFT dimensions: ( 144, 144, 144)

     Smooth grid:   169437 G-vectors     FFT dimensions: (  72,  72,  72)

     Dynamical RAM for                 wfc:      68.23 MB

     Dynamical RAM for     wfc (w. buffer):     341.15 MB

     Dynamical RAM for           str. fact:      62.09 MB

     Dynamical RAM for           local pot:       0.00 MB

     Dynamical RAM for          nlocal pot:     155.21 MB

     Dynamical RAM for                qrad:       4.31 MB

     Dynamical RAM for          rho,v,vnew:     130.44 MB

     Dynamical RAM for               rhoin:      43.48 MB

     Dynamical RAM for            rho*nmix:     331.16 MB

     Dynamical RAM for           G-vectors:      78.91 MB

     Dynamical RAM for          h,s,v(r/c):       8.15 MB

     Dynamical RAM for          <psi|beta>:       1.55 MB

     Dynamical RAM for                 psi:     136.46 MB

     Dynamical RAM for                hpsi:     136.46 MB

     Dynamical RAM for                spsi:     136.46 MB

     Dynamical RAM for      wfcinit/wfcrot:     177.61 MB

     Dynamical RAM for           addusdens:    4346.48 MB

     Dynamical RAM for          addusforce:    5309.01 MB

     Dynamical RAM for         addusstress:    4160.20 MB

     Estimated static dynamical RAM per process >       1.31 GB

     Estimated max dynamical RAM per process >       6.50 GB

     Initial potential from superposition of free atoms

     starting charge  351.66429, renormalised to  352.00000
     Starting wfcs are  272 randomized atomic wfcs
     Checking if some PAW data can be deallocated... 

     total cpu time spent up to now is      131.2 secs

     Self-consistent Calculation

     iteration #  1     ecut=    20.00 Ry     beta= 0.40
     Davidson diagonalization with overlap
     ethr =  1.00E-02,  avg # of iterations =  3.0

     Threshold (ethr) on eigenvalues was too large:
     Diagonalizing with lowered threshold

     Davidson diagonalization with overlap
     ethr =  2.80E-04,  avg # of iterations =  7.2

     total cpu time spent up to now is      736.2 secs

     total energy              =  -16565.09939260 Ry
     estimated scf accuracy    <       1.02977372 Ry

     iteration #  2     ecut=    20.00 Ry     beta= 0.40
     Davidson diagonalization with overlap
     ethr =  2.93E-04,  avg # of iterations =  2.0

     total cpu time spent up to now is     1060.2 secs

     total energy              =  -16565.24300995 Ry
     estimated scf accuracy    <       0.07532313 Ry

     iteration #  3     ecut=    20.00 Ry     beta= 0.40
     Davidson diagonalization with overlap
     c_bands:  4 eigenvalues not converged
     ethr =  2.14E-05,  avg # of iterations = 13.2

     negative rho (up, down):  5.240E-04 0.000E+00

     total cpu time spent up to now is     1440.2 secs

     total energy              =  -16565.25775049 Ry
     estimated scf accuracy    <       0.01206194 Ry

     iteration #  4     ecut=    20.00 Ry     beta= 0.40
     Davidson diagonalization with overlap
     ethr =  3.43E-06,  avg # of iterations =  8.2

     negative rho (up, down):  7.912E-04 0.000E+00

     total cpu time spent up to now is     1849.4 secs

     total energy              =  -16565.25960327 Ry
     estimated scf accuracy    <       0.00121872 Ry

     iteration #  5     ecut=    20.00 Ry     beta= 0.40
     Davidson diagonalization with overlap
     ethr =  3.46E-07,  avg # of iterations =  4.0

     negative rho (up, down):  7.492E-04 0.000E+00

     total cpu time spent up to now is     2201.7 secs

     total energy              =  -16565.25983803 Ry
     estimated scf accuracy    <       0.00006154 Ry

     iteration #  6     ecut=    20.00 Ry     beta= 0.40
     Davidson diagonalization with overlap
     ethr =  1.75E-08,  avg # of iterations =  3.5

     negative rho (up, down):  7.253E-04 0.000E+00

     total cpu time spent up to now is     2582.9 secs

     total energy              =  -16565.25985345 Ry
     estimated scf accuracy    <       0.00001456 Ry

     iteration #  7     ecut=    20.00 Ry     beta= 0.40
     Davidson diagonalization with overlap
     ethr =  4.14E-09,  avg # of iterations =  3.5

     negative rho (up, down):  7.197E-04 0.000E+00

     total cpu time spent up to now is     2896.9 secs

     total energy              =  -16565.25985723 Ry
     estimated scf accuracy    <       0.00000088 Ry

     iteration #  8     ecut=    20.00 Ry     beta= 0.40
     Davidson diagonalization with overlap
     ethr =  2.51E-10,  avg # of iterations =  4.0

     negative rho (up, down):  7.237E-04 0.000E+00

     total cpu time spent up to now is     3270.5 secs

     total energy              =  -16565.25985779 Ry
     estimated scf accuracy    <       0.00000078 Ry

     iteration #  9     ecut=    20.00 Ry     beta= 0.40
     Davidson diagonalization with overlap
     ethr =  2.21E-10,  avg # of iterations =  2.0

     negative rho (up, down):  7.248E-04 0.000E+00

     total cpu time spent up to now is     3564.5 secs

     total energy              =  -16565.25985791 Ry
     estimated scf accuracy    <       0.00000007 Ry

     iteration # 10     ecut=    20.00 Ry     beta= 0.40
     Davidson diagonalization with overlap
     ethr =  2.10E-11,  avg # of iterations =  4.0

     negative rho (up, down):  7.248E-04 0.000E+00

     total cpu time spent up to now is     3910.4 secs

     End of self-consistent calculation

          k = 0.0000 0.0000 0.0000 ( 21247 PWs)   bands (ev):

   -18.6065 -18.6063 -18.6063 -18.6063 -18.6061 -18.6061 -18.6061 -18.6059
   -14.3337 -14.3337 -14.3337 -14.3297 -14.3297 -14.3297 -14.3229 -14.3229
   -14.3145 -14.3145 -14.3145 -14.3129 -14.3129 -14.3129 -14.3024 -14.3024
   -14.2826 -14.2826 -14.2826 -14.2826 -14.2826 -14.2826 -14.2826 -14.2826
   -14.2826 -14.2814 -14.2814 -14.2814 -14.2814 -14.2814 -14.2814 -14.2739
   -14.2739 -14.2739 -14.2712 -14.2712 -14.2712 -14.2646 -14.2646 -14.2646
    -9.3422  -9.1436  -9.1436  -9.1436  -8.8992  -8.8992  -8.8992  -8.8328
    -8.8328  -8.8328  -8.8327  -8.8327  -8.8327  -8.8322  -8.8322  -8.8322
    -8.8269  -8.8269  -8.8269  -8.6030  -8.6030  -8.6017  -8.6017  -8.6017
    -5.7502  -5.3970  -5.3970  -5.3970  -5.3840  -5.3840  -5.3840  -5.3838
    -5.3838  -5.3838  -5.3838  -5.3838  -5.3838  -5.3801  -5.3801  -5.3801
    -5.3801  -5.3801  -5.3801  -5.3768  -5.3768  -5.3768  -5.3765  -5.3765
    -5.3765  -5.2217  -5.2217  -5.2217  -4.7211  -4.7211  -4.7211  -4.2209
    -0.6277  -0.6277  -0.6277  -0.5254  -0.5254  -0.5254  -0.5254  -0.5254
    -0.5254  -0.3904  -0.3904  -0.3904   0.6259   0.6259   0.6259   0.7587
     0.7587   0.7587   0.8983   0.8983   0.8983   1.2178   1.2178   1.2178
     1.2178   1.2178   1.2178   1.3240   1.3240   1.3240   1.3240   1.3240
     1.3240   1.3726   1.3726   1.3726   1.3726   1.3726   1.3726   1.4299
     1.4299   1.4299   1.4965   1.4965   1.4965   1.5061   1.5061   1.5595
     1.5595   1.5595   1.5840   1.5840   1.5840   1.5840   1.5840   1.5840
     1.6721   1.6721   1.6721   1.9233   1.9233   1.9233   2.0598   2.0598
     2.0598   2.0723   2.0723   2.0723   2.3215   2.3215   2.3215   2.7199
     4.1746   4.1746   4.1746   4.6001   4.6001   4.6001   4.6001   4.6001
     4.6001   4.9295   4.9295   4.9295   5.9105   6.7674   6.9894   6.9894
     7.3337   7.3337   7.3337   7.4565   7.4565   7.4565   7.5317   7.5317
     7.5317   7.6170   7.6170   7.6171   7.7809   7.7809   7.7809   7.8833
     7.8834   7.8834   7.8834

     occupation numbers 
     1.0000   1.0000   1.0000   1.0000   1.0000   1.0000   1.0000   1.0000
     1.0000   1.0000   1.0000   1.0000   1.0000   1.0000   1.0000   1.0000
     1.0000   1.0000   1.0000   1.0000   1.0000   1.0000   1.0000   1.0000
     1.0000   1.0000   1.0000   1.0000   1.0000   1.0000   1.0000   1.0000
     1.0000   1.0000   1.0000   1.0000   1.0000   1.0000   1.0000   1.0000
     1.0000   1.0000   1.0000   1.0000   1.0000   1.0000   1.0000   1.0000
     1.0000   1.0000   1.0000   1.0000   1.0000   1.0000   1.0000   1.0000
     1.0000   1.0000   1.0000   1.0000   1.0000   1.0000   1.0000   1.0000
     1.0000   1.0000   1.0000   1.0000   1.0000   1.0000   1.0000   1.0000
     1.0000   1.0000   1.0000   1.0000   1.0000   1.0000   1.0000   1.0000
     1.0000   1.0000   1.0000   1.0000   1.0000   1.0000   1.0000   1.0000
     1.0000   1.0000   1.0000   1.0000   1.0000   1.0000   1.0000   1.0000
     1.0000   1.0000   1.0000   1.0000   1.0000   1.0000   1.0000   1.0000
     1.0000   1.0000   1.0000   1.0000   1.0000   1.0000   1.0000   1.0000
     1.0000   1.0000   1.0000   1.0000   1.0000   1.0000   1.0000   1.0000
     1.0000   1.0000   1.0000   1.0000   1.0000   1.0000   1.0000   1.0000
     1.0000   1.0000   1.0000   1.0000   1.0000   1.0000   1.0000   1.0000
     1.0000   1.0000   1.0000   1.0000   1.0000   1.0000   1.0000   1.0000
     1.0000   1.0000   1.0000   1.0000   1.0000   1.0000   1.0000   1.0000
     1.0000   1.0000   1.0000   1.0000   1.0000   1.0000   1.0000   1.0000
     1.0000   1.0000   1.0000   1.0003   1.0003   1.0003   1.0063   1.0063
     1.0063   1.0079   1.0079   1.0079   1.0817   1.0817   1.0817   0.0890
     0.0000   0.0000   0.0000   0.0000   0.0000   0.0000   0.0000   0.0000
     0.0000   0.0000   0.0000   0.0000   0.0000   0.0000   0.0000   0.0000
     0.0000   0.0000   0.0000   0.0000   0.0000   0.0000   0.0000   0.0000
     0.0000   0.0000   0.0000   0.0000   0.0000   0.0000   0.0000   0.0000
     0.0000   0.0000   0.0000

          k = 0.0000 0.0000 0.3333 ( 21170 PWs)   bands (ev):

   -18.6065 -18.6064 -18.6063 -18.6063 -18.6061 -18.6061 -18.6061 -18.6060
   -14.3347 -14.3311 -14.3311 -14.3298 -14.3254 -14.3247 -14.3247 -14.3177
   -14.3174 -14.3153 -14.3153 -14.3109 -14.3079 -14.3079 -14.3068 -14.3051
   -14.2809 -14.2809 -14.2795 -14.2795 -14.2783 -14.2783 -14.2776 -14.2776
   -14.2773 -14.2773 -14.2762 -14.2761 -14.2751 -14.2751 -14.2750 -14.2750
   -14.2747 -14.2747 -14.2744 -14.2744 -14.2707 -14.2705 -14.2696 -14.2696
    -9.3064  -9.2137  -9.1075  -9.1075  -9.0081  -9.0081  -8.8817  -8.8460
    -8.8325  -8.8325  -8.8323  -8.8323  -8.8312  -8.8312  -8.8284  -8.8284
    -8.7543  -8.7265  -8.7265  -8.6466  -8.6340  -8.6340  -8.6029  -8.6022
    -5.6303  -5.3937  -5.3937  -5.3920  -5.3871  -5.3871  -5.3836  -5.3836
    -5.3830  -5.3830  -5.3829  -5.3829  -5.3819  -5.3815  -5.3810  -5.3810
    -5.3810  -5.3810  -5.3792  -5.3792  -5.3792  -5.3792  -5.3776  -5.3776
    -5.3775  -5.3679  -5.1109  -5.1109  -4.8641  -4.8641  -4.6172  -4.3711
    -0.6037  -0.6037  -0.5526  -0.5526  -0.4944  -0.4944  -0.4272  -0.4272
    -0.2343  -0.1334  -0.1334   0.0082   0.5636   0.6585   0.6875   0.6875
     0.7245   0.7310   0.7310   0.8179   0.8179   0.8255   0.8255   0.9319
     0.9913   0.9913   1.2113   1.2113   1.2339   1.2339   1.3362   1.3362
     1.3603   1.3603   1.3912   1.3912   1.4265   1.4265   1.4611   1.4995
     1.5035   1.5209   1.5209   1.5224   1.5224   1.5258   1.5321   1.5321
     1.5675   1.5675   1.5992   1.5992   1.6130   1.6130   1.6339   1.6405
     1.6405   1.6708   1.6870   1.6870   1.9288   1.9288   1.9490   1.9490
     1.9512   1.9512   2.0630   2.0690   2.0794   2.0794   2.3444   2.4519
     4.2941   4.2941   4.5055   4.5055   4.6926   4.6926   4.8577   4.8577
     5.2030   5.5191   5.5191   5.8041   6.1628   6.7082   6.7981   6.9608
     7.0450   7.0450   7.1281   7.1952   7.3812   7.4613   7.4613   7.4657
     7.4719   7.5783   7.5783   7.6237   7.6240   7.6884   7.7276   7.7278
     7.7891   7.7891   7.8626

     occupation numbers 
     1.0000   1.0000   1.0000   1.0000   1.0000   1.0000   1.0000   1.0000
     1.0000   1.0000   1.0000   1.0000   1.0000   1.0000   1.0000   1.0000
     1.0000   1.0000   1.0000   1.0000   1.0000   1.0000   1.0000   1.0000
     1.0000   1.0000   1.0000   1.0000   1.0000   1.0000   1.0000   1.0000
     1.0000   1.0000   1.0000   1.0000   1.0000   1.0000   1.0000   1.0000
     1.0000   1.0000   1.0000   1.0000   1.0000   1.0000   1.0000   1.0000
     1.0000   1.0000   1.0000   1.0000   1.0000   1.0000   1.0000   1.0000
     1.0000   1.0000   1.0000   1.0000   1.0000   1.0000   1.0000   1.0000
     1.0000   1.0000   1.0000   1.0000   1.0000   1.0000   1.0000   1.0000
     1.0000   1.0000   1.0000   1.0000   1.0000   1.0000   1.0000   1.0000
     1.0000   1.0000   1.0000   1.0000   1.0000   1.0000   1.0000   1.0000
     1.0000   1.0000   1.0000   1.0000   1.0000   1.0000   1.0000   1.0000
     1.0000   1.0000   1.0000   1.0000   1.0000   1.0000   1.0000   1.0000
     1.0000   1.0000   1.0000   1.0000   1.0000   1.0000   1.0000   1.0000
     1.0000   1.0000   1.0000   1.0000   1.0000   1.0000   1.0000   1.0000
     1.0000   1.0000   1.0000   1.0000   1.0000   1.0000   1.0000   1.0000
     1.0000   1.0000   1.0000   1.0000   1.0000   1.0000   1.0000   1.0000
     1.0000   1.0000   1.0000   1.0000   1.0000   1.0000   1.0000   1.0000
     1.0000   1.0000   1.0000   1.0000   1.0000   1.0000   1.0000   1.0000
     1.0000   1.0000   1.0000   1.0000   1.0000   1.0000   1.0000   1.0000
     1.0000   1.0000   1.0000   1.0000   1.0004   1.0004   1.0006   1.0006
     1.0006   1.0006   1.0067   1.0074   1.0089   1.0089   1.0727   0.8854
     0.0000   0.0000   0.0000   0.0000   0.0000   0.0000   0.0000   0.0000
     0.0000   0.0000   0.0000   0.0000   0.0000   0.0000   0.0000   0.0000
     0.0000   0.0000   0.0000   0.0000   0.0000   0.0000   0.0000   0.0000
     0.0000   0.0000   0.0000   0.0000   0.0000   0.0000   0.0000   0.0000
     0.0000   0.0000   0.0000

          k = 0.0000 0.3333 0.3333 ( 21190 PWs)   bands (ev):

   -18.6064 -18.6063 -18.6063 -18.6062 -18.6062 -18.6061 -18.6061 -18.6060
   -14.3309 -14.3295 -14.3295 -14.3290 -14.3277 -14.3260 -14.3190 -14.3190
   -14.3183 -14.3183 -14.3157 -14.3148 -14.3140 -14.3085 -14.3085 -14.3084
   -14.2806 -14.2793 -14.2793 -14.2789 -14.2784 -14.2784 -14.2783 -14.2772
   -14.2764 -14.2763 -14.2763 -14.2760 -14.2760 -14.2757 -14.2756 -14.2756
   -14.2752 -14.2750 -14.2743 -14.2743 -14.2738 -14.2723 -14.2723 -14.2713
    -9.2708  -9.1787  -9.1787  -9.0860  -9.0741  -8.9827  -8.9827  -8.9169
    -8.8321  -8.8314  -8.8314  -8.8294  -8.7778  -8.7732  -8.7567  -8.7567
    -8.7373  -8.7373  -8.7039  -8.6636  -8.6605  -8.6336  -8.6336  -8.6259
    -5.5157  -5.3928  -5.3890  -5.3884  -5.3884  -5.3869  -5.3869  -5.3867
    -5.3843  -5.3836  -5.3835  -5.3824  -5.3824  -5.3824  -5.3821  -5.3809
    -5.3802  -5.3802  -5.3799  -5.3799  -5.3792  -5.3785  -5.3782  -5.3781
    -5.3781  -5.2537  -5.2537  -5.0062  -5.0043  -4.7603  -4.7603  -4.5172
    -0.5782  -0.5236  -0.5236  -0.4611  -0.2818  -0.1687  -0.1687  -0.1607
    -0.1408  -0.0432  -0.0372  -0.0372   0.5820   0.5820   0.5849   0.6422
     0.7098   0.7098   0.7414   0.7469   0.7469   0.7801   0.7886   0.8007
     0.8374   0.9952   0.9952   1.0519   1.0648   1.1819   1.1975   1.1975
     1.2458   1.2458   1.3422   1.3628   1.3791   1.4135   1.4135   1.4242
     1.4966   1.5389   1.5389   1.5423   1.5435   1.5630   1.5630   1.5747
     1.5897   1.5965   1.6049   1.6049   1.6298   1.6298   1.6810   1.7085
     1.7085   1.7202   1.7480   1.7680   1.7680   1.7860   1.8738   1.9032
     1.9087   1.9548   1.9548   1.9652   1.9895   2.0858   2.0858   2.1618
     4.4048   4.6032   4.6032   4.7792   5.2468   5.3108   5.4380   5.4380
     5.5676   5.6117   5.7344   5.7344   6.3738   6.7680   6.7680   6.8990
     6.9017   6.9017   6.9643   7.0951   7.1615   7.1615   7.2064   7.2801
     7.3048   7.3490   7.3532   7.4305   7.4551   7.4551   7.6019   7.6019
     7.6153   7.6230   7.7120

     occupation numbers 
     1.0000   1.0000   1.0000   1.0000   1.0000   1.0000   1.0000   1.0000
     1.0000   1.0000   1.0000   1.0000   1.0000   1.0000   1.0000   1.0000
     1.0000   1.0000   1.0000   1.0000   1.0000   1.0000   1.0000   1.0000
     1.0000   1.0000   1.0000   1.0000   1.0000   1.0000   1.0000   1.0000
     1.0000   1.0000   1.0000   1.0000   1.0000   1.0000   1.0000   1.0000
     1.0000   1.0000   1.0000   1.0000   1.0000   1.0000   1.0000   1.0000
     1.0000   1.0000   1.0000   1.0000   1.0000   1.0000   1.0000   1.0000
     1.0000   1.0000   1.0000   1.0000   1.0000   1.0000   1.0000   1.0000
     1.0000   1.0000   1.0000   1.0000   1.0000   1.0000   1.0000   1.0000
     1.0000   1.0000   1.0000   1.0000   1.0000   1.0000   1.0000   1.0000
     1.0000   1.0000   1.0000   1.0000   1.0000   1.0000   1.0000   1.0000
     1.0000   1.0000   1.0000   1.0000   1.0000   1.0000   1.0000   1.0000
     1.0000   1.0000   1.0000   1.0000   1.0000   1.0000   1.0000   1.0000
     1.0000   1.0000   1.0000   1.0000   1.0000   1.0000   1.0000   1.0000
     1.0000   1.0000   1.0000   1.0000   1.0000   1.0000   1.0000   1.0000
     1.0000   1.0000   1.0000   1.0000   1.0000   1.0000   1.0000   1.0000
     1.0000   1.0000   1.0000   1.0000   1.0000   1.0000   1.0000   1.0000
     1.0000   1.0000   1.0000   1.0000   1.0000   1.0000   1.0000   1.0000
     1.0000   1.0000   1.0000   1.0000   1.0000   1.0000   1.0000   1.0000
     1.0000   1.0000   1.0000   1.0000   1.0000   1.0000   1.0000   1.0000
     1.0000   1.0000   1.0000   1.0000   1.0000   1.0000   1.0001   1.0002
     1.0002   1.0007   1.0007   1.0009   1.0015   1.0099   1.0099   1.0303
     0.0000   0.0000   0.0000   0.0000   0.0000   0.0000   0.0000   0.0000
     0.0000   0.0000   0.0000   0.0000   0.0000   0.0000   0.0000   0.0000
     0.0000   0.0000   0.0000   0.0000   0.0000   0.0000   0.0000   0.0000
     0.0000   0.0000   0.0000   0.0000   0.0000   0.0000   0.0000   0.0000
     0.0000   0.0000   0.0000

          k = 0.3333 0.3333 0.3333 ( 21227 PWs)   bands (ev):

   -18.6064 -18.6063 -18.6063 -18.6063 -18.6062 -18.6062 -18.6062 -18.6061
   -14.3273 -14.3273 -14.3271 -14.3271 -14.3271 -14.3219 -14.3219 -14.3219
   -14.3185 -14.3185 -14.3185 -14.3146 -14.3146 -14.3146 -14.3142 -14.3142
   -14.2796 -14.2796 -14.2796 -14.2790 -14.2789 -14.2789 -14.2789 -14.2766
   -14.2766 -14.2765 -14.2765 -14.2765 -14.2764 -14.2764 -14.2763 -14.2762
   -14.2762 -14.2762 -14.2752 -14.2752 -14.2748 -14.2748 -14.2748 -14.2746
    -9.2360  -9.1453  -9.1453  -9.1453  -9.0576  -9.0576  -9.0576  -8.9832
    -8.7767  -8.7767  -8.7767  -8.7743  -8.7743  -8.7581  -8.7581  -8.7581
    -8.7216  -8.7216  -8.7216  -8.6629  -8.6629  -8.6611  -8.6611  -8.6611
    -5.4133  -5.3905  -5.3905  -5.3862  -5.3862  -5.3862  -5.3858  -5.3858
    -5.3858  -5.3841  -5.3841  -5.3841  -5.3838  -5.3838  -5.3832  -5.3832
    -5.3832  -5.3790  -5.3790  -5.3790  -5.3768  -5.3768  -5.3768  -5.3768
    -5.3696  -5.1465  -5.1465  -5.1465  -4.9022  -4.9022  -4.9022  -4.6605
    -0.2542  -0.2542  -0.1940  -0.1940  -0.1940  -0.0855  -0.0855  -0.0855
    -0.0788  -0.0788  -0.0788  -0.0512   0.5995   0.5995   0.5995   0.6118
     0.6118   0.6118   0.6574   0.6575   0.6575   0.6866   0.6866   0.6993
     0.9766   0.9766   1.0090   1.0090   1.0090   1.1424   1.1424   1.1424
     1.1895   1.1895   1.1895   1.2806   1.2806   1.2806   1.3276   1.3276
     1.4288   1.4436   1.4436   1.4436   1.4815   1.4815   1.4815   1.6753
     1.6879   1.6879   1.6879   1.7051   1.7173   1.7173   1.7288   1.7288
     1.7288   1.7414   1.7414   1.7414   1.7799   1.7799   1.7799   1.8243
     1.8243   1.8243   1.8927   1.8927   1.9094   1.9094   1.9094   1.9303
     5.3256   5.3256   5.4095   5.4865   5.4866   5.4866   5.5338   5.5338
     5.5338   5.6599   5.6599   5.6599   6.5217   6.8100   6.8100   6.8100
     6.8463   6.8463   6.8463   7.0123   7.0123   7.0123   7.1297   7.1498
     7.1498   7.1748   7.1801   7.1801   7.1801   7.2905   7.2905   7.2905
     7.4172   7.4172   7.7894

     occupation numbers 
     1.0000   1.0000   1.0000   1.0000   1.0000   1.0000   1.0000   1.0000
     1.0000   1.0000   1.0000   1.0000   1.0000   1.0000   1.0000   1.0000
     1.0000   1.0000   1.0000   1.0000   1.0000   1.0000   1.0000   1.0000
     1.0000   1.0000   1.0000   1.0000   1.0000   1.0000   1.0000   1.0000
     1.0000   1.0000   1.0000   1.0000   1.0000   1.0000   1.0000   1.0000
     1.0000   1.0000   1.0000   1.0000   1.0000   1.0000   1.0000   1.0000
     1.0000   1.0000   1.0000   1.0000   1.0000   1.0000   1.0000   1.0000
     1.0000   1.0000   1.0000   1.0000   1.0000   1.0000   1.0000   1.0000
     1.0000   1.0000   1.0000   1.0000   1.0000   1.0000   1.0000   1.0000
     1.0000   1.0000   1.0000   1.0000   1.0000   1.0000   1.0000   1.0000
     1.0000   1.0000   1.0000   1.0000   1.0000   1.0000   1.0000   1.0000
     1.0000   1.0000   1.0000   1.0000   1.0000   1.0000   1.0000   1.0000
     1.0000   1.0000   1.0000   1.0000   1.0000   1.0000   1.0000   1.0000
     1.0000   1.0000   1.0000   1.0000   1.0000   1.0000   1.0000   1.0000
     1.0000   1.0000   1.0000   1.0000   1.0000   1.0000   1.0000   1.0000
     1.0000   1.0000   1.0000   1.0000   1.0000   1.0000   1.0000   1.0000
     1.0000   1.0000   1.0000   1.0000   1.0000   1.0000   1.0000   1.0000
     1.0000   1.0000   1.0000   1.0000   1.0000   1.0000   1.0000   1.0000
     1.0000   1.0000   1.0000   1.0000   1.0000   1.0000   1.0000   1.0000
     1.0000   1.0000   1.0000   1.0000   1.0000   1.0000   1.0000   1.0000
     1.0000   1.0000   1.0000   1.0000   1.0000   1.0000   1.0000   1.0000
     1.0000   1.0000   1.0001   1.0001   1.0002   1.0002   1.0002   1.0004
     0.0000   0.0000   0.0000   0.0000   0.0000   0.0000   0.0000   0.0000
     0.0000   0.0000   0.0000   0.0000   0.0000   0.0000   0.0000   0.0000
     0.0000   0.0000   0.0000   0.0000   0.0000   0.0000   0.0000   0.0000
     0.0000   0.0000   0.0000   0.0000   0.0000   0.0000   0.0000   0.0000
     0.0000   0.0000   0.0000

     the Fermi energy is     2.5886 ev

!    total energy              =  -16565.25985797 Ry
     estimated scf accuracy    <          4.4E-09 Ry
     smearing contrib. (-TS)   =       0.00413860 Ry
     internal energy E=F+TS    =  -16565.26399658 Ry

     The total energy is F=E-TS. E is the sum of the following terms:
     one-electron contribution =    -765.77755373 Ry
     hartree contribution      =     545.15316647 Ry
     xc contribution           =   -1596.72668830 Ry
     ewald contribution        =   -1229.22289246 Ry
     one-center paw contrib.   =  -13518.69002856 Ry
      -> PAW hartree energy AE =    1033.32293055 Ry
      -> PAW hartree energy PS =   -1031.40003329 Ry
      -> PAW xc energy AE      =  -14841.77753859 Ry
      -> PAW xc energy PS      =    1321.16461277 Ry
      -> total E_H with PAW    =     547.07606372 Ry
      -> total E_XC with PAW   =  -15117.33961411 Ry

     convergence has been achieved in  10 iterations

     negative rho (up, down):  7.248E-04 0.000E+00

     Forces acting on atoms (cartesian axes, Ry/au):

     atom    1 type  1   force =     0.00000049    0.00000049    0.00000049
     atom    2 type  1   force =     0.00000049    0.00000049   -0.00000049
     atom    3 type  1   force =     0.00000049   -0.00000049    0.00000049
     atom    4 type  1   force =     0.00000049   -0.00000049   -0.00000049
     atom    5 type  1   force =    -0.00000049    0.00000049    0.00000049
     atom    6 type  1   force =    -0.00000049    0.00000049   -0.00000049
     atom    7 type  1   force =    -0.00000049   -0.00000049    0.00000049
     atom    8 type  1   force =    -0.00000049   -0.00000049   -0.00000049
     atom    9 type  3   force =     0.00000000    0.00000000    0.00000000
     atom   10 type  3   force =     0.00000000    0.00000000    0.00000000
     atom   11 type  3   force =     0.00000000    0.00000000    0.00000000
     atom   12 type  3   force =     0.00000000    0.00000000    0.00000000
     atom   13 type  3   force =     0.00000000    0.00000000    0.00000000
     atom   14 type  3   force =     0.00000000    0.00000000    0.00000000
     atom   15 type  3   force =     0.00000000    0.00000000    0.00000000
     atom   16 type  3   force =     0.00000000    0.00000000    0.00000000
     atom   17 type  2   force =    -0.00000000    0.00000000   -0.00000502
     atom   18 type  2   force =    -0.00000000    0.00000000    0.00000502
     atom   19 type  2   force =    -0.00000000    0.00000000   -0.00000365
     atom   20 type  2   force =    -0.00000000    0.00000000    0.00000365
     atom   21 type  2   force =     0.00000000    0.00000000   -0.00000365
     atom   22 type  2   force =     0.00000000    0.00000000    0.00000365
     atom   23 type  2   force =    -0.00000000    0.00000000   -0.00000689
     atom   24 type  2   force =     0.00000000    0.00000000    0.00000689
     atom   25 type  2   force =     0.00000000   -0.00000502    0.00000000
     atom   26 type  2   force =     0.00000000   -0.00000365    0.00000000
     atom   27 type  2   force =     0.00000000    0.00000502    0.00000000
     atom   28 type  2   force =     0.00000000    0.00000365   -0.00000000
     atom   29 type  2   force =     0.00000000   -0.00000365    0.00000000
     atom   30 type  2   force =     0.00000000   -0.00000689    0.00000000
     atom   31 type  2   force =    -0.00000000    0.00000365   -0.00000000
     atom   32 type  2   force =    -0.00000000    0.00000689   -0.00000000
     atom   33 type  2   force =    -0.00000502   -0.00000000    0.00000000
     atom   34 type  2   force =    -0.00000365    0.00000000    0.00000000
     atom   35 type  2   force =    -0.00000365   -0.00000000    0.00000000
     atom   36 type  2   force =    -0.00000689    0.00000000    0.00000000
     atom   37 type  2   force =     0.00000502   -0.00000000    0.00000000
     atom   38 type  2   force =     0.00000365    0.00000000    0.00000000
     atom   39 type  2   force =     0.00000365   -0.00000000    0.00000000
     atom   40 type  2   force =     0.00000689    0.00000000    0.00000000
     The non-local contrib.  to forces
     atom    1 type  1   force =     0.00000001    0.00000001    0.00000001
     atom    2 type  1   force =     0.00000001    0.00000001   -0.00000001
     atom    3 type  1   force =     0.00000001   -0.00000001    0.00000001
     atom    4 type  1   force =     0.00000001   -0.00000001   -0.00000001
     atom    5 type  1   force =    -0.00000001    0.00000001    0.00000001
     atom    6 type  1   force =    -0.00000001    0.00000001   -0.00000001
     atom    7 type  1   force =    -0.00000001   -0.00000001    0.00000001
     atom    8 type  1   force =    -0.00000001   -0.00000001   -0.00000001
     atom    9 type  3   force =     0.00000000    0.00000000    0.00000000
     atom   10 type  3   force =     0.00000000    0.00000000    0.00000000
     atom   11 type  3   force =     0.00000000    0.00000000    0.00000000
     atom   12 type  3   force =     0.00000000    0.00000000    0.00000000
     atom   13 type  3   force =     0.00000000    0.00000000    0.00000000
     atom   14 type  3   force =     0.00000000    0.00000000    0.00000000
     atom   15 type  3   force =     0.00000000    0.00000000    0.00000000
     atom   16 type  3   force =     0.00000000    0.00000000    0.00000000
     atom   17 type  2   force =    -0.00000000   -0.00000000   -0.00000001
     atom   18 type  2   force =     0.00000000    0.00000000    0.00000001
     atom   19 type  2   force =     0.00000000    0.00000000    0.00000225
     atom   20 type  2   force =     0.00000000    0.00000000   -0.00000225
     atom   21 type  2   force =     0.00000000    0.00000000    0.00000225
     atom   22 type  2   force =     0.00000000    0.00000000   -0.00000225
     atom   23 type  2   force =     0.00000000    0.00000000   -0.00000205
     atom   24 type  2   force =     0.00000000    0.00000000    0.00000205
     atom   25 type  2   force =    -0.00000000   -0.00000001    0.00000000
     atom   26 type  2   force =     0.00000000    0.00000225    0.00000000
     atom   27 type  2   force =     0.00000000    0.00000001    0.00000000
     atom   28 type  2   force =    -0.00000000   -0.00000225    0.00000000
     atom   29 type  2   force =     0.00000000    0.00000225    0.00000000
     atom   30 type  2   force =    -0.00000000   -0.00000205    0.00000000
     atom   31 type  2   force =     0.00000000   -0.00000225   -0.00000000
     atom   32 type  2   force =     0.00000000    0.00000205    0.00000000
     atom   33 type  2   force =    -0.00000001   -0.00000000    0.00000000
     atom   34 type  2   force =     0.00000225    0.00000000    0.00000000
     atom   35 type  2   force =     0.00000225    0.00000000    0.00000000
     atom   36 type  2   force =    -0.00000205    0.00000000    0.00000000
     atom   37 type  2   force =     0.00000001    0.00000000    0.00000000
     atom   38 type  2   force =    -0.00000225    0.00000000    0.00000000
     atom   39 type  2   force =    -0.00000225    0.00000000    0.00000000
     atom   40 type  2   force =     0.00000205    0.00000000    0.00000000
     The ionic contribution  to forces
     atom    1 type  1   force =    -0.00004935   -0.00004935   -0.00004935
     atom    2 type  1   force =    -0.00004935   -0.00004935    0.00004935
     atom    3 type  1   force =    -0.00004935    0.00004935   -0.00004935
     atom    4 type  1   force =    -0.00004935    0.00004935    0.00004935
     atom    5 type  1   force =     0.00004935   -0.00004935   -0.00004935
     atom    6 type  1   force =     0.00004935   -0.00004935    0.00004935
     atom    7 type  1   force =     0.00004935    0.00004935   -0.00004935
     atom    8 type  1   force =     0.00004935    0.00004935    0.00004935
     atom    9 type  3   force =    -0.00000000   -0.00000000   -0.00000000
     atom   10 type  3   force =     0.00000000    0.00000000    0.00000000
     atom   11 type  3   force =     0.00000000    0.00000000    0.00000000
     atom   12 type  3   force =    -0.00000000    0.00000000    0.00000000
     atom   13 type  3   force =     0.00000000    0.00000000    0.00000000
     atom   14 type  3   force =     0.00000000   -0.00000000    0.00000000
     atom   15 type  3   force =     0.00000000    0.00000000   -0.00000000
     atom   16 type  3   force =     0.00000000    0.00000000    0.00000000
     atom   17 type  2   force =    -0.00000000   -0.00000000   -0.00020855
     atom   18 type  2   force =    -0.00000000   -0.00000000    0.00020855
     atom   19 type  2   force =    -0.00000000    0.00000000   -0.00021075
     atom   20 type  2   force =    -0.00000000    0.00000000    0.00021075
     atom   21 type  2   force =     0.00000000   -0.00000000   -0.00021075
     atom   22 type  2   force =     0.00000000   -0.00000000    0.00021075
     atom   23 type  2   force =     0.00000000    0.00000000   -0.00021115
     atom   24 type  2   force =    -0.00000000   -0.00000000    0.00021115
     atom   25 type  2   force =    -0.00000000   -0.00020855   -0.00000000
     atom   26 type  2   force =    -0.00000000   -0.00021075    0.00000000
     atom   27 type  2   force =    -0.00000000    0.00020855   -0.00000000
     atom   28 type  2   force =    -0.00000000    0.00021075    0.00000000
     atom   29 type  2   force =     0.00000000   -0.00021075   -0.00000000
     atom   30 type  2   force =     0.00000000   -0.00021115    0.00000000
     atom   31 type  2   force =     0.00000000    0.00021075   -0.00000000
     atom   32 type  2   force =    -0.00000000    0.00021115   -0.00000000
     atom   33 type  2   force =    -0.00020855   -0.00000000   -0.00000000
     atom   34 type  2   force =    -0.00021075   -0.00000000    0.00000000
     atom   35 type  2   force =    -0.00021075    0.00000000   -0.00000000
     atom   36 type  2   force =    -0.00021115    0.00000000    0.00000000
     atom   37 type  2   force =     0.00020855   -0.00000000   -0.00000000
     atom   38 type  2   force =     0.00021075   -0.00000000    0.00000000
     atom   39 type  2   force =     0.00021075    0.00000000   -0.00000000
     atom   40 type  2   force =     0.00021115   -0.00000000   -0.00000000
     The local contribution  to forces
     atom    1 type  1   force =     0.00005094    0.00005094    0.00005094
     atom    2 type  1   force =     0.00005094    0.00005094   -0.00005094
     atom    3 type  1   force =     0.00005094   -0.00005094    0.00005094
     atom    4 type  1   force =     0.00005094   -0.00005094   -0.00005094
     atom    5 type  1   force =    -0.00005094    0.00005094    0.00005094
     atom    6 type  1   force =    -0.00005094    0.00005094   -0.00005094
     atom    7 type  1   force =    -0.00005094   -0.00005094    0.00005094
     atom    8 type  1   force =    -0.00005094   -0.00005094   -0.00005094
     atom    9 type  3   force =     0.00000000    0.00000000    0.00000000
     atom   10 type  3   force =     0.00000000    0.00000000    0.00000000
     atom   11 type  3   force =     0.00000000    0.00000000    0.00000000
     atom   12 type  3   force =     0.00000000    0.00000000    0.00000000
     atom   13 type  3   force =     0.00000000    0.00000000    0.00000000
     atom   14 type  3   force =     0.00000000    0.00000000    0.00000000
     atom   15 type  3   force =     0.00000000    0.00000000    0.00000000
     atom   16 type  3   force =     0.00000000    0.00000000    0.00000000
     atom   17 type  2   force =     0.00000000   -0.00000000    0.00020122
     atom   18 type  2   force =     0.00000000   -0.00000000   -0.00020122
     atom   19 type  2   force =     0.00000000    0.00000000    0.00021479
     atom   20 type  2   force =     0.00000000    0.00000000   -0.00021479
     atom   21 type  2   force =     0.00000000   -0.00000000    0.00021479
     atom   22 type  2   force =     0.00000000    0.00000000   -0.00021479
     atom   23 type  2   force =     0.00000000    0.00000000    0.00019140
     atom   24 type  2   force =    -0.00000000   -0.00000000   -0.00019140
     atom   25 type  2   force =    -0.00000000    0.00020122   -0.00000000
     atom   26 type  2   force =     0.00000000    0.00021479    0.00000000
     atom   27 type  2   force =     0.00000000   -0.00020122   -0.00000000
     atom   28 type  2   force =     0.00000000   -0.00021479    0.00000000
     atom   29 type  2   force =     0.00000000    0.00021479   -0.00000000
     atom   30 type  2   force =     0.00000000    0.00019140    0.00000000
     atom   31 type  2   force =     0.00000000   -0.00021479   -0.00000000
     atom   32 type  2   force =     0.00000000   -0.00019140   -0.00000000
     atom   33 type  2   force =     0.00020122   -0.00000000   -0.00000000
     atom   34 type  2   force =     0.00021479   -0.00000000    0.00000000
     atom   35 type  2   force =     0.00021479    0.00000000   -0.00000000
     atom   36 type  2   force =     0.00019140    0.00000000    0.00000000
     atom   37 type  2   force =    -0.00020122   -0.00000000   -0.00000000
     atom   38 type  2   force =    -0.00021479   -0.00000000    0.00000000
     atom   39 type  2   force =    -0.00021479    0.00000000   -0.00000000
     atom   40 type  2   force =    -0.00019140    0.00000000    0.00000000
     The core correction contribution to forces
     atom    1 type  1   force =     0.00000005    0.00000005    0.00000005
     atom    2 type  1   force =     0.00000005    0.00000005   -0.00000005
     atom    3 type  1   force =     0.00000005   -0.00000005    0.00000005
     atom    4 type  1   force =     0.00000005   -0.00000005   -0.00000005
     atom    5 type  1   force =    -0.00000005    0.00000005    0.00000005
     atom    6 type  1   force =    -0.00000005    0.00000005   -0.00000005
     atom    7 type  1   force =    -0.00000005   -0.00000005    0.00000005
     atom    8 type  1   force =    -0.00000005   -0.00000005   -0.00000005
     atom    9 type  3   force =     0.00000000    0.00000000    0.00000000
     atom   10 type  3   force =    -0.00000000   -0.00000000    0.00000000
     atom   11 type  3   force =    -0.00000000    0.00000000   -0.00000000
     atom   12 type  3   force =     0.00000000   -0.00000000   -0.00000000
     atom   13 type  3   force =     0.00000000   -0.00000000   -0.00000000
     atom   14 type  3   force =    -0.00000000    0.00000000   -0.00000000
     atom   15 type  3   force =    -0.00000000   -0.00000000    0.00000000
     atom   16 type  3   force =     0.00000000    0.00000000    0.00000000
     atom   17 type  2   force =     0.00000000    0.00000000    0.00000112
     atom   18 type  2   force =     0.00000000    0.00000000   -0.00000112
     atom   19 type  2   force =     0.00000000   -0.00000000    0.00000089
     atom   20 type  2   force =     0.00000000   -0.00000000   -0.00000089
     atom   21 type  2   force =    -0.00000000    0.00000000    0.00000089
     atom   22 type  2   force =    -0.00000000    0.00000000   -0.00000089
     atom   23 type  2   force =    -0.00000000   -0.00000000    0.00000012
     atom   24 type  2   force =     0.00000000    0.00000000   -0.00000012
     atom   25 type  2   force =     0.00000000    0.00000112    0.00000000
     atom   26 type  2   force =     0.00000000    0.00000089   -0.00000000
     atom   27 type  2   force =     0.00000000   -0.00000112    0.00000000
     atom   28 type  2   force =     0.00000000   -0.00000089   -0.00000000
     atom   29 type  2   force =    -0.00000000    0.00000089    0.00000000
     atom   30 type  2   force =    -0.00000000    0.00000012   -0.00000000
     atom   31 type  2   force =    -0.00000000   -0.00000089    0.00000000
     atom   32 type  2   force =     0.00000000   -0.00000012    0.00000000
     atom   33 type  2   force =     0.00000112    0.00000000    0.00000000
     atom   34 type  2   force =     0.00000089    0.00000000   -0.00000000
     atom   35 type  2   force =     0.00000089   -0.00000000    0.00000000
     atom   36 type  2   force =     0.00000012   -0.00000000   -0.00000000
     atom   37 type  2   force =    -0.00000112    0.00000000    0.00000000
     atom   38 type  2   force =    -0.00000089    0.00000000   -0.00000000
     atom   39 type  2   force =    -0.00000089   -0.00000000    0.00000000
     atom   40 type  2   force =    -0.00000012    0.00000000    0.00000000
     The Hubbard contrib.    to forces
     atom    1 type  1   force =     0.00000000    0.00000000    0.00000000
     atom    2 type  1   force =     0.00000000    0.00000000    0.00000000
     atom    3 type  1   force =     0.00000000    0.00000000    0.00000000
     atom    4 type  1   force =     0.00000000    0.00000000    0.00000000
     atom    5 type  1   force =     0.00000000    0.00000000    0.00000000
     atom    6 type  1   force =     0.00000000    0.00000000    0.00000000
     atom    7 type  1   force =     0.00000000    0.00000000    0.00000000
     atom    8 type  1   force =     0.00000000    0.00000000    0.00000000
     atom    9 type  3   force =     0.00000000    0.00000000    0.00000000
     atom   10 type  3   force =     0.00000000    0.00000000    0.00000000
     atom   11 type  3   force =     0.00000000    0.00000000    0.00000000
     atom   12 type  3   force =     0.00000000    0.00000000    0.00000000
     atom   13 type  3   force =     0.00000000    0.00000000    0.00000000
     atom   14 type  3   force =     0.00000000    0.00000000    0.00000000
     atom   15 type  3   force =     0.00000000    0.00000000    0.00000000
     atom   16 type  3   force =     0.00000000    0.00000000    0.00000000
     atom   17 type  2   force =     0.00000000    0.00000000    0.00000000
     atom   18 type  2   force =     0.00000000    0.00000000    0.00000000
     atom   19 type  2   force =     0.00000000    0.00000000    0.00000000
     atom   20 type  2   force =     0.00000000    0.00000000    0.00000000
     atom   21 type  2   force =     0.00000000    0.00000000    0.00000000
     atom   22 type  2   force =     0.00000000    0.00000000    0.00000000
     atom   23 type  2   force =     0.00000000    0.00000000    0.00000000
     atom   24 type  2   force =     0.00000000    0.00000000    0.00000000
     atom   25 type  2   force =     0.00000000    0.00000000    0.00000000
     atom   26 type  2   force =     0.00000000    0.00000000    0.00000000
     atom   27 type  2   force =     0.00000000    0.00000000    0.00000000
     atom   28 type  2   force =     0.00000000    0.00000000    0.00000000
     atom   29 type  2   force =     0.00000000    0.00000000    0.00000000
     atom   30 type  2   force =     0.00000000    0.00000000    0.00000000
     atom   31 type  2   force =     0.00000000    0.00000000    0.00000000
     atom   32 type  2   force =     0.00000000    0.00000000    0.00000000
     atom   33 type  2   force =     0.00000000    0.00000000    0.00000000
     atom   34 type  2   force =     0.00000000    0.00000000    0.00000000
     atom   35 type  2   force =     0.00000000    0.00000000    0.00000000
     atom   36 type  2   force =     0.00000000    0.00000000    0.00000000
     atom   37 type  2   force =     0.00000000    0.00000000    0.00000000
     atom   38 type  2   force =     0.00000000    0.00000000    0.00000000
     atom   39 type  2   force =     0.00000000    0.00000000    0.00000000
     atom   40 type  2   force =     0.00000000    0.00000000    0.00000000
     The SCF correction term to forces
     atom    1 type  1   force =    -0.00000116   -0.00000116   -0.00000116
     atom    2 type  1   force =    -0.00000116   -0.00000116    0.00000116
     atom    3 type  1   force =    -0.00000116    0.00000116   -0.00000116
     atom    4 type  1   force =    -0.00000116    0.00000116    0.00000116
     atom    5 type  1   force =     0.00000116   -0.00000116   -0.00000116
     atom    6 type  1   force =     0.00000116   -0.00000116    0.00000116
     atom    7 type  1   force =     0.00000116    0.00000116   -0.00000116
     atom    8 type  1   force =     0.00000116    0.00000116    0.00000116
     atom    9 type  3   force =     0.00000000   -0.00000000   -0.00000000
     atom   10 type  3   force =     0.00000000    0.00000000    0.00000000
     atom   11 type  3   force =     0.00000000   -0.00000000   -0.00000000
     atom   12 type  3   force =     0.00000000   -0.00000000   -0.00000000
     atom   13 type  3   force =    -0.00000000   -0.00000000    0.00000000
     atom   14 type  3   force =    -0.00000000   -0.00000000   -0.00000000
     atom   15 type  3   force =    -0.00000000    0.00000000    0.00000000
     atom   16 type  3   force =    -0.00000000    0.00000000   -0.00000000
     atom   17 type  2   force =     0.00000000    0.00000000    0.00000121
     atom   18 type  2   force =     0.00000000    0.00000000   -0.00000121
     atom   19 type  2   force =     0.00000000   -0.00000000   -0.00001083
     atom   20 type  2   force =     0.00000000   -0.00000000    0.00001083
     atom   21 type  2   force =     0.00000000   -0.00000000   -0.00001083
     atom   22 type  2   force =     0.00000000   -0.00000000    0.00001083
     atom   23 type  2   force =     0.00000000   -0.00000000    0.00001479
     atom   24 type  2   force =     0.00000000   -0.00000000   -0.00001479
     atom   25 type  2   force =     0.00000000    0.00000121   -0.00000000
     atom   26 type  2   force =     0.00000000   -0.00001083    0.00000000
     atom   27 type  2   force =     0.00000000   -0.00000121   -0.00000000
     atom   28 type  2   force =     0.00000000    0.00001083   -0.00000000
     atom   29 type  2   force =     0.00000000   -0.00001083   -0.00000000
     atom   30 type  2   force =     0.00000000    0.00001479    0.00000000
     atom   31 type  2   force =     0.00000000    0.00001083    0.00000000
     atom   32 type  2   force =     0.00000000   -0.00001479   -0.00000000
     atom   33 type  2   force =     0.00000121    0.00000000    0.00000000
     atom   34 type  2   force =    -0.00001083    0.00000000    0.00000000
     atom   35 type  2   force =    -0.00001083    0.00000000    0.00000000
     atom   36 type  2   force =     0.00001479    0.00000000    0.00000000
     atom   37 type  2   force =    -0.00000121    0.00000000   -0.00000000
     atom   38 type  2   force =     0.00001083    0.00000000   -0.00000000
     atom   39 type  2   force =     0.00001083    0.00000000    0.00000000
     atom   40 type  2   force =    -0.00001479   -0.00000000    0.00000000

     Total force =     0.000025     Total SCF correction =     0.000053
     SCF correction compared to forces is large: reduce conv_thr to get better values


     Computing stress (Cartesian axis) and pressure


     negative rho (up, down):  7.248E-04 0.000E+00
          total   stress  (Ry/bohr**3)                   (kbar)     P=      -25.18
  -0.00017118   0.00000000   0.00000000          -25.18        0.00        0.00
   0.00000000  -0.00017118   0.00000000            0.00      -25.18        0.00
   0.00000000   0.00000000  -0.00017118            0.00        0.00      -25.18

     kinetic stress (kbar)   3322.90      0.00      0.00
                                0.00   3322.90      0.00
                                0.00      0.00   3322.90

     local   stress (kbar)   -417.36      0.00     -0.00
                                0.00   -417.36     -0.00
                               -0.00     -0.00   -417.36

     nonloc. stress (kbar)   1061.31      0.00      0.00
                                0.00   1061.31      0.00
                                0.00      0.00   1061.31

     hartree stress (kbar)   1905.27     -0.00     -0.00
                               -0.00   1905.27     -0.00
                               -0.00     -0.00   1905.27

     exc-cor stress (kbar)  12006.12      0.00      0.00
                                0.00  12006.12      0.00
                                0.00      0.00  12006.12

     corecor stress (kbar) -13607.38     -0.00      0.00
                               -0.00 -13607.38     -0.00
                                0.00     -0.00 -13607.38

     ewald   stress (kbar)  -4296.03     -0.00      0.00
                               -0.00  -4296.03     -0.00
                                0.00     -0.00  -4296.03

     hubbard stress (kbar)      0.00      0.00      0.00
                                0.00      0.00      0.00
                                0.00      0.00      0.00

     DFT-D   stress (kbar)      0.00      0.00      0.00
                                0.00      0.00      0.00
                                0.00      0.00      0.00

     XDM     stress (kbar)      0.00      0.00      0.00
                                0.00      0.00      0.00
                                0.00      0.00      0.00

     dft-nl  stress (kbar)      0.00      0.00      0.00
                                0.00      0.00      0.00
                                0.00      0.00      0.00

     TS-vdW  stress (kbar)      0.00      0.00      0.00
                                0.00      0.00      0.00
                                0.00      0.00      0.00



     Writing output data file ../../out/aiida.save/

     init_run     :    128.14s CPU    130.95s WALL (       1 calls)
     electrons    :   3723.17s CPU   3779.31s WALL (       1 calls)
     forces       :    106.08s CPU    108.96s WALL (       1 calls)
     stress       :    171.57s CPU    178.91s WALL (       1 calls)

     Called by init_run:
     wfcinit      :    105.30s CPU    105.63s WALL (       1 calls)
     wfcinit:atom :      0.15s CPU      0.25s WALL (       4 calls)
     wfcinit:wfcr :    104.02s CPU    104.14s WALL (       4 calls)
     potinit      :      4.16s CPU      4.42s WALL (       1 calls)
     hinit0       :      1.64s CPU      1.70s WALL (       1 calls)

     Called by electrons:
     c_bands      :   3044.14s CPU   3050.21s WALL (      11 calls)
     sum_band     :    488.60s CPU    515.50s WALL (      11 calls)
     v_of_rho     :     18.20s CPU     20.14s WALL (      11 calls)
     v_h          :      1.17s CPU      1.32s WALL (      11 calls)
     v_xc         :     20.14s CPU     22.26s WALL (      13 calls)
     newd         :    165.91s CPU    189.28s WALL (      11 calls)
     PAW_pot      :     22.76s CPU     22.76s WALL (      11 calls)
     mix_rho      :      2.13s CPU      2.13s WALL (      11 calls)

     Called by c_bands:
     init_us_2    :      4.49s CPU      4.53s WALL (     100 calls)
     cegterg      :   3024.43s CPU   3030.48s WALL (      44 calls)

     Called by sum_band:
     sum_band:wei :      0.01s CPU      0.01s WALL (      11 calls)
     sum_band:loo :    227.43s CPU    227.54s WALL (      11 calls)
     sum_band:buf :      0.87s CPU      0.87s WALL (      44 calls)
     sum_band:ini :      2.02s CPU      2.02s WALL (      44 calls)
     sum_band:cal :    175.71s CPU    175.76s WALL (      44 calls)
     sum_band:bec :      0.14s CPU      0.14s WALL (      44 calls)
     addusdens    :    258.86s CPU    285.63s WALL (      11 calls)
     addusd:skk   :      2.86s CPU      4.70s WALL (      33 calls)
     addusd:dgemm :    170.28s CPU    190.54s WALL (      33 calls)
     addusd:qvan2 :     80.71s CPU     80.73s WALL (      33 calls)

     Called by *egterg:
     cdiaghg      :     44.60s CPU     44.61s WALL (     259 calls)
     cegterg:over :    398.33s CPU    398.42s WALL (     219 calls)
     cegterg:upda :    248.76s CPU    249.73s WALL (     219 calls)
     cegterg:last :    604.70s CPU    604.85s WALL (      89 calls)
     h_psi        :   1163.50s CPU   1165.35s WALL (     267 calls)
     s_psi        :    480.68s CPU    480.76s WALL (     267 calls)
     g_psi        :      3.87s CPU      3.87s WALL (     219 calls)

     Called by h_psi:
     h_psi:calbec :    456.61s CPU    456.71s WALL (     267 calls)
     vloc_psi     :    223.85s CPU    224.19s WALL (     267 calls)
     add_vuspsi   :    481.28s CPU    481.35s WALL (     267 calls)

     General routines
     calbec       :    704.46s CPU    704.62s WALL (     331 calls)
     fft          :     12.10s CPU     12.10s WALL (     167 calls)
     ffts         :      0.12s CPU      0.12s WALL (      22 calls)
     fftw         :    227.03s CPU    227.35s WALL (   57944 calls)
     interpolate  :      1.01s CPU      1.15s WALL (      11 calls)

     Parallel routines

     PAW routines
     PAW_pot      :     22.76s CPU     22.76s WALL (      11 calls)
     PAW_symme    :      0.05s CPU      0.06s WALL (      22 calls)

     PWSCF        :      1h 8m CPU      1h 9m WALL


   This run was terminated on:  16:10: 2   1Apr2024            

=------------------------------------------------------------------------------=
   JOB DONE.
=------------------------------------------------------------------------------=
