### Running on host: fes33

     Program PWSCF v.6.7MaX starts on  1Apr2024 at 14: 4:52 

     This program is part of the open-source Quantum ESPRESSO suite
     for quantum simulation of materials; please cite
         "P. Giannozzi et al., J. Phys.:Condens. Matter 21 395502 (2009);
         "P. Giannozzi et al., J. Phys.:Condens. Matter 29 465901 (2017);
          URL http://www.quantum-espresso.org", 
     in publications or presentations arising from this work. More details at
     http://www.quantum-espresso.org/quote

     Parallel version (MPI), running on     1 processors

     MPI processes distributed on     1 nodes
     Reading input from pwscf_ecutwfc-16.in

     Current dimensions of program PWSCF are:
     Max number of different atomic species (ntypx) = 10
     Max number of k-points (npk) =  40000
     Max angular momentum in pseudopotentials (lmaxx) =  3
     file Pb.pbe-dn-kjpaw_psl.0.2.2.UPF: wavefunction(s)  6S renormalized

     Subspace diagonalization in iterative solution of the eigenvalue problem:
     a serial algorithm will be used

     Found symmetry operation: I + (  0.0000  0.0000  0.5000)
     This is a supercell, fractional translations are disabled
     Message from routine setup:
     using ibrav=0 with symmetry is DISCOURAGED, use correct ibrav instead

     G-vector sticks info
     --------------------
     sticks:   dense  smooth     PW     G-vecs:    dense   smooth      PW
     Sum       14817    2965    793              1356433   121409   16879



     bravais-lattice index     =            0
     lattice parameter (alat)  =      24.1188  a.u.
     unit-cell volume          =   14030.3801 (a.u.)^3
     number of atoms/cell      =           40
     number of atomic types    =            3
     number of electrons       =       352.00
     number of Kohn-Sham states=          211
     kinetic-energy cutoff     =      16.0000  Ry
     charge density cutoff     =     320.0000  Ry
     scf convergence threshold =      8.0E-09
     mixing beta               =       0.4000
     number of iterations used =            8  plain     mixing
     Exchange-correlation= SLA  PW   PBX  PBC
                           (   1   4   3   4   0   0   0)

     celldm(1)=  24.118843  celldm(2)=   0.000000  celldm(3)=   0.000000
     celldm(4)=   0.000000  celldm(5)=   0.000000  celldm(6)=   0.000000

     crystal axes: (cart. coord. in units of alat)
               a(1) = (   1.000000   0.000000   0.000000 )  
               a(2) = (   0.000000   1.000000   0.000000 )  
               a(3) = (   0.000000   0.000000   1.000000 )  

     reciprocal axes: (cart. coord. in units 2 pi/alat)
               b(1) = (  1.000000  0.000000  0.000000 )  
               b(2) = (  0.000000  1.000000  0.000000 )  
               b(3) = (  0.000000  0.000000  1.000000 )  


     PseudoPot. # 1 for Cs read from file:
     ../../pseudo/Cs_pbe_v1.uspp.F.UPF
     MD5 check sum: 3476d69cb178dfad3ffaa59df4e07ca4
     Pseudo is Ultrasoft + core correction, Zval =  9.0
     Generated by new atomic code, or converted to UPF format
     Using radial grid of  905 points,  6 beta functions with: 
                l(1) =   0
                l(2) =   0
                l(3) =   1
                l(4) =   1
                l(5) =   2
                l(6) =   2
     Q(r) pseudized with  6 coefficients,  rinner =    1.500   1.500   1.500
                                                       1.500   1.500

     PseudoPot. # 2 for I  read from file:
     ../../pseudo/I.pbe-n-kjpaw_psl.0.2.UPF
     MD5 check sum: d4ef18d9c8f18dc85e5843bca1e50dc0
     Pseudo is Projector augmented-wave + core cor, Zval =  7.0
     Generated using "atomic" code by A. Dal Corso  v.5.0.99 svn rev. 10869
     Shape of augmentation charge: PSQ
     Using radial grid of 1247 points,  4 beta functions with: 
                l(1) =   0
                l(2) =   0
                l(3) =   1
                l(4) =   1
     Q(r) pseudized with 0 coefficients 


     PseudoPot. # 3 for Pb read from file:
     ../../pseudo/Pb.pbe-dn-kjpaw_psl.0.2.2.UPF
     MD5 check sum: 9d431e6316058b74ade52399a6cf67da
     Pseudo is Projector augmented-wave + core cor, Zval = 14.0
     Generated using "atomic" code by A. Dal Corso  v.5.0.99 svn rev. 10869
     Shape of augmentation charge: PSQ
     Using radial grid of 1281 points,  6 beta functions with: 
                l(1) =   0
                l(2) =   0
                l(3) =   1
                l(4) =   1
                l(5) =   2
                l(6) =   2
     Q(r) pseudized with 0 coefficients 


     atomic species   valence    mass     pseudopotential
        Cs             9.00   132.90545     Cs( 1.00)
        I              7.00   126.90447     I ( 1.00)
        Pb            14.00   207.20000     Pb( 1.00)

     48 Sym. Ops., with inversion, found


                                    s                        frac. trans.

      isym =  1     identity                                     

 cryst.   s( 1) = (     1          0          0      )
                  (     0          1          0      )
                  (     0          0          1      )

 cart.    s( 1) = (  1.0000000  0.0000000  0.0000000 )
                  (  0.0000000  1.0000000  0.0000000 )
                  (  0.0000000  0.0000000  1.0000000 )


      isym =  2     180 deg rotation - cart. axis [0,0,1]        

 cryst.   s( 2) = (    -1          0          0      )
                  (     0         -1          0      )
                  (     0          0          1      )

 cart.    s( 2) = ( -1.0000000  0.0000000  0.0000000 )
                  (  0.0000000 -1.0000000  0.0000000 )
                  (  0.0000000  0.0000000  1.0000000 )


      isym =  3     180 deg rotation - cart. axis [0,1,0]        

 cryst.   s( 3) = (    -1          0          0      )
                  (     0          1          0      )
                  (     0          0         -1      )

 cart.    s( 3) = ( -1.0000000  0.0000000  0.0000000 )
                  (  0.0000000  1.0000000  0.0000000 )
                  (  0.0000000  0.0000000 -1.0000000 )


      isym =  4     180 deg rotation - cart. axis [1,0,0]        

 cryst.   s( 4) = (     1          0          0      )
                  (     0         -1          0      )
                  (     0          0         -1      )

 cart.    s( 4) = (  1.0000000  0.0000000  0.0000000 )
                  (  0.0000000 -1.0000000  0.0000000 )
                  (  0.0000000  0.0000000 -1.0000000 )


      isym =  5     180 deg rotation - cart. axis [1,1,0]        

 cryst.   s( 5) = (     0          1          0      )
                  (     1          0          0      )
                  (     0          0         -1      )

 cart.    s( 5) = (  0.0000000  1.0000000  0.0000000 )
                  (  1.0000000  0.0000000  0.0000000 )
                  (  0.0000000  0.0000000 -1.0000000 )


      isym =  6     180 deg rotation - cart. axis [1,-1,0]       

 cryst.   s( 6) = (     0         -1          0      )
                  (    -1          0          0      )
                  (     0          0         -1      )

 cart.    s( 6) = (  0.0000000 -1.0000000  0.0000000 )
                  ( -1.0000000  0.0000000  0.0000000 )
                  (  0.0000000  0.0000000 -1.0000000 )


      isym =  7      90 deg rotation - cart. axis [0,0,-1]       

 cryst.   s( 7) = (     0         -1          0      )
                  (     1          0          0      )
                  (     0          0          1      )

 cart.    s( 7) = (  0.0000000  1.0000000  0.0000000 )
                  ( -1.0000000  0.0000000  0.0000000 )
                  (  0.0000000  0.0000000  1.0000000 )


      isym =  8      90 deg rotation - cart. axis [0,0,1]        

 cryst.   s( 8) = (     0          1          0      )
                  (    -1          0          0      )
                  (     0          0          1      )

 cart.    s( 8) = (  0.0000000 -1.0000000  0.0000000 )
                  (  1.0000000  0.0000000  0.0000000 )
                  (  0.0000000  0.0000000  1.0000000 )


      isym =  9     180 deg rotation - cart. axis [1,0,1]        

 cryst.   s( 9) = (     0          0          1      )
                  (     0         -1          0      )
                  (     1          0          0      )

 cart.    s( 9) = (  0.0000000  0.0000000  1.0000000 )
                  (  0.0000000 -1.0000000  0.0000000 )
                  (  1.0000000  0.0000000  0.0000000 )


      isym = 10     180 deg rotation - cart. axis [-1,0,1]       

 cryst.   s(10) = (     0          0         -1      )
                  (     0         -1          0      )
                  (    -1          0          0      )

 cart.    s(10) = (  0.0000000  0.0000000 -1.0000000 )
                  (  0.0000000 -1.0000000  0.0000000 )
                  ( -1.0000000  0.0000000  0.0000000 )


      isym = 11      90 deg rotation - cart. axis [0,1,0]        

 cryst.   s(11) = (     0          0         -1      )
                  (     0          1          0      )
                  (     1          0          0      )

 cart.    s(11) = (  0.0000000  0.0000000  1.0000000 )
                  (  0.0000000  1.0000000  0.0000000 )
                  ( -1.0000000  0.0000000  0.0000000 )


      isym = 12      90 deg rotation - cart. axis [0,-1,0]       

 cryst.   s(12) = (     0          0          1      )
                  (     0          1          0      )
                  (    -1          0          0      )

 cart.    s(12) = (  0.0000000  0.0000000 -1.0000000 )
                  (  0.0000000  1.0000000  0.0000000 )
                  (  1.0000000  0.0000000  0.0000000 )


      isym = 13     180 deg rotation - cart. axis [0,1,1]        

 cryst.   s(13) = (    -1          0          0      )
                  (     0          0          1      )
                  (     0          1          0      )

 cart.    s(13) = ( -1.0000000  0.0000000  0.0000000 )
                  (  0.0000000  0.0000000  1.0000000 )
                  (  0.0000000  1.0000000  0.0000000 )


      isym = 14     180 deg rotation - cart. axis [0,1,-1]       

 cryst.   s(14) = (    -1          0          0      )
                  (     0          0         -1      )
                  (     0         -1          0      )

 cart.    s(14) = ( -1.0000000  0.0000000  0.0000000 )
                  (  0.0000000  0.0000000 -1.0000000 )
                  (  0.0000000 -1.0000000  0.0000000 )


      isym = 15      90 deg rotation - cart. axis [-1,0,0]       

 cryst.   s(15) = (     1          0          0      )
                  (     0          0         -1      )
                  (     0          1          0      )

 cart.    s(15) = (  1.0000000  0.0000000  0.0000000 )
                  (  0.0000000  0.0000000  1.0000000 )
                  (  0.0000000 -1.0000000  0.0000000 )


      isym = 16      90 deg rotation - cart. axis [1,0,0]        

 cryst.   s(16) = (     1          0          0      )
                  (     0          0          1      )
                  (     0         -1          0      )

 cart.    s(16) = (  1.0000000  0.0000000  0.0000000 )
                  (  0.0000000  0.0000000 -1.0000000 )
                  (  0.0000000  1.0000000  0.0000000 )


      isym = 17     120 deg rotation - cart. axis [-1,-1,-1]     

 cryst.   s(17) = (     0          0          1      )
                  (     1          0          0      )
                  (     0          1          0      )

 cart.    s(17) = (  0.0000000  1.0000000  0.0000000 )
                  (  0.0000000  0.0000000  1.0000000 )
                  (  1.0000000  0.0000000  0.0000000 )


      isym = 18     120 deg rotation - cart. axis [-1,1,1]       

 cryst.   s(18) = (     0          0         -1      )
                  (    -1          0          0      )
                  (     0          1          0      )

 cart.    s(18) = (  0.0000000 -1.0000000  0.0000000 )
                  (  0.0000000  0.0000000  1.0000000 )
                  ( -1.0000000  0.0000000  0.0000000 )


      isym = 19     120 deg rotation - cart. axis [1,1,-1]       

 cryst.   s(19) = (     0          0         -1      )
                  (     1          0          0      )
                  (     0         -1          0      )

 cart.    s(19) = (  0.0000000  1.0000000  0.0000000 )
                  (  0.0000000  0.0000000 -1.0000000 )
                  ( -1.0000000  0.0000000  0.0000000 )


      isym = 20     120 deg rotation - cart. axis [1,-1,1]       

 cryst.   s(20) = (     0          0          1      )
                  (    -1          0          0      )
                  (     0         -1          0      )

 cart.    s(20) = (  0.0000000 -1.0000000  0.0000000 )
                  (  0.0000000  0.0000000 -1.0000000 )
                  (  1.0000000  0.0000000  0.0000000 )


      isym = 21     120 deg rotation - cart. axis [1,1,1]        

 cryst.   s(21) = (     0          1          0      )
                  (     0          0          1      )
                  (     1          0          0      )

 cart.    s(21) = (  0.0000000  0.0000000  1.0000000 )
                  (  1.0000000  0.0000000  0.0000000 )
                  (  0.0000000  1.0000000  0.0000000 )


      isym = 22     120 deg rotation - cart. axis [-1,1,-1]      

 cryst.   s(22) = (     0         -1          0      )
                  (     0          0         -1      )
                  (     1          0          0      )

 cart.    s(22) = (  0.0000000  0.0000000  1.0000000 )
                  ( -1.0000000  0.0000000  0.0000000 )
                  (  0.0000000 -1.0000000  0.0000000 )


      isym = 23     120 deg rotation - cart. axis [1,-1,-1]      

 cryst.   s(23) = (     0         -1          0      )
                  (     0          0          1      )
                  (    -1          0          0      )

 cart.    s(23) = (  0.0000000  0.0000000 -1.0000000 )
                  ( -1.0000000  0.0000000  0.0000000 )
                  (  0.0000000  1.0000000  0.0000000 )


      isym = 24     120 deg rotation - cart. axis [-1,-1,1]      

 cryst.   s(24) = (     0          1          0      )
                  (     0          0         -1      )
                  (    -1          0          0      )

 cart.    s(24) = (  0.0000000  0.0000000 -1.0000000 )
                  (  1.0000000  0.0000000  0.0000000 )
                  (  0.0000000 -1.0000000  0.0000000 )


      isym = 25     inversion                                    

 cryst.   s(25) = (    -1          0          0      )
                  (     0         -1          0      )
                  (     0          0         -1      )

 cart.    s(25) = ( -1.0000000  0.0000000  0.0000000 )
                  (  0.0000000 -1.0000000  0.0000000 )
                  (  0.0000000  0.0000000 -1.0000000 )


      isym = 26     inv. 180 deg rotation - cart. axis [0,0,1]   

 cryst.   s(26) = (     1          0          0      )
                  (     0          1          0      )
                  (     0          0         -1      )

 cart.    s(26) = (  1.0000000  0.0000000  0.0000000 )
                  (  0.0000000  1.0000000  0.0000000 )
                  (  0.0000000  0.0000000 -1.0000000 )


      isym = 27     inv. 180 deg rotation - cart. axis [0,1,0]   

 cryst.   s(27) = (     1          0          0      )
                  (     0         -1          0      )
                  (     0          0          1      )

 cart.    s(27) = (  1.0000000  0.0000000  0.0000000 )
                  (  0.0000000 -1.0000000  0.0000000 )
                  (  0.0000000  0.0000000  1.0000000 )


      isym = 28     inv. 180 deg rotation - cart. axis [1,0,0]   

 cryst.   s(28) = (    -1          0          0      )
                  (     0          1          0      )
                  (     0          0          1      )

 cart.    s(28) = ( -1.0000000  0.0000000  0.0000000 )
                  (  0.0000000  1.0000000  0.0000000 )
                  (  0.0000000  0.0000000  1.0000000 )


      isym = 29     inv. 180 deg rotation - cart. axis [1,1,0]   

 cryst.   s(29) = (     0         -1          0      )
                  (    -1          0          0      )
                  (     0          0          1      )

 cart.    s(29) = (  0.0000000 -1.0000000  0.0000000 )
                  ( -1.0000000  0.0000000  0.0000000 )
                  (  0.0000000  0.0000000  1.0000000 )


      isym = 30     inv. 180 deg rotation - cart. axis [1,-1,0]  

 cryst.   s(30) = (     0          1          0      )
                  (     1          0          0      )
                  (     0          0          1      )

 cart.    s(30) = (  0.0000000  1.0000000  0.0000000 )
                  (  1.0000000  0.0000000  0.0000000 )
                  (  0.0000000  0.0000000  1.0000000 )


      isym = 31     inv.  90 deg rotation - cart. axis [0,0,-1]  

 cryst.   s(31) = (     0          1          0      )
                  (    -1          0          0      )
                  (     0          0         -1      )

 cart.    s(31) = (  0.0000000 -1.0000000  0.0000000 )
                  (  1.0000000  0.0000000  0.0000000 )
                  (  0.0000000  0.0000000 -1.0000000 )


      isym = 32     inv.  90 deg rotation - cart. axis [0,0,1]   

 cryst.   s(32) = (     0         -1          0      )
                  (     1          0          0      )
                  (     0          0         -1      )

 cart.    s(32) = (  0.0000000  1.0000000  0.0000000 )
                  ( -1.0000000  0.0000000  0.0000000 )
                  (  0.0000000  0.0000000 -1.0000000 )


      isym = 33     inv. 180 deg rotation - cart. axis [1,0,1]   

 cryst.   s(33) = (     0          0         -1      )
                  (     0          1          0      )
                  (    -1          0          0      )

 cart.    s(33) = (  0.0000000  0.0000000 -1.0000000 )
                  (  0.0000000  1.0000000  0.0000000 )
                  ( -1.0000000  0.0000000  0.0000000 )


      isym = 34     inv. 180 deg rotation - cart. axis [-1,0,1]  

 cryst.   s(34) = (     0          0          1      )
                  (     0          1          0      )
                  (     1          0          0      )

 cart.    s(34) = (  0.0000000  0.0000000  1.0000000 )
                  (  0.0000000  1.0000000  0.0000000 )
                  (  1.0000000  0.0000000  0.0000000 )


      isym = 35     inv.  90 deg rotation - cart. axis [0,1,0]   

 cryst.   s(35) = (     0          0          1      )
                  (     0         -1          0      )
                  (    -1          0          0      )

 cart.    s(35) = (  0.0000000  0.0000000 -1.0000000 )
                  (  0.0000000 -1.0000000  0.0000000 )
                  (  1.0000000  0.0000000  0.0000000 )


      isym = 36     inv.  90 deg rotation - cart. axis [0,-1,0]  

 cryst.   s(36) = (     0          0         -1      )
                  (     0         -1          0      )
                  (     1          0          0      )

 cart.    s(36) = (  0.0000000  0.0000000  1.0000000 )
                  (  0.0000000 -1.0000000  0.0000000 )
                  ( -1.0000000  0.0000000  0.0000000 )


      isym = 37     inv. 180 deg rotation - cart. axis [0,1,1]   

 cryst.   s(37) = (     1          0          0      )
                  (     0          0         -1      )
                  (     0         -1          0      )

 cart.    s(37) = (  1.0000000  0.0000000  0.0000000 )
                  (  0.0000000  0.0000000 -1.0000000 )
                  (  0.0000000 -1.0000000  0.0000000 )


      isym = 38     inv. 180 deg rotation - cart. axis [0,1,-1]  

 cryst.   s(38) = (     1          0          0      )
                  (     0          0          1      )
                  (     0          1          0      )

 cart.    s(38) = (  1.0000000  0.0000000  0.0000000 )
                  (  0.0000000  0.0000000  1.0000000 )
                  (  0.0000000  1.0000000  0.0000000 )


      isym = 39     inv.  90 deg rotation - cart. axis [-1,0,0]  

 cryst.   s(39) = (    -1          0          0      )
                  (     0          0          1      )
                  (     0         -1          0      )

 cart.    s(39) = ( -1.0000000  0.0000000  0.0000000 )
                  (  0.0000000  0.0000000 -1.0000000 )
                  (  0.0000000  1.0000000  0.0000000 )


      isym = 40     inv.  90 deg rotation - cart. axis [1,0,0]   

 cryst.   s(40) = (    -1          0          0      )
                  (     0          0         -1      )
                  (     0          1          0      )

 cart.    s(40) = ( -1.0000000  0.0000000  0.0000000 )
                  (  0.0000000  0.0000000  1.0000000 )
                  (  0.0000000 -1.0000000  0.0000000 )


      isym = 41     inv. 120 deg rotation - cart. axis [-1,-1,-1]

 cryst.   s(41) = (     0          0         -1      )
                  (    -1          0          0      )
                  (     0         -1          0      )

 cart.    s(41) = (  0.0000000 -1.0000000  0.0000000 )
                  (  0.0000000  0.0000000 -1.0000000 )
                  ( -1.0000000  0.0000000  0.0000000 )


      isym = 42     inv. 120 deg rotation - cart. axis [-1,1,1]  

 cryst.   s(42) = (     0          0          1      )
                  (     1          0          0      )
                  (     0         -1          0      )

 cart.    s(42) = (  0.0000000  1.0000000  0.0000000 )
                  (  0.0000000  0.0000000 -1.0000000 )
                  (  1.0000000  0.0000000  0.0000000 )


      isym = 43     inv. 120 deg rotation - cart. axis [1,1,-1]  

 cryst.   s(43) = (     0          0          1      )
                  (    -1          0          0      )
                  (     0          1          0      )

 cart.    s(43) = (  0.0000000 -1.0000000  0.0000000 )
                  (  0.0000000  0.0000000  1.0000000 )
                  (  1.0000000  0.0000000  0.0000000 )


      isym = 44     inv. 120 deg rotation - cart. axis [1,-1,1]  

 cryst.   s(44) = (     0          0         -1      )
                  (     1          0          0      )
                  (     0          1          0      )

 cart.    s(44) = (  0.0000000  1.0000000  0.0000000 )
                  (  0.0000000  0.0000000  1.0000000 )
                  ( -1.0000000  0.0000000  0.0000000 )


      isym = 45     inv. 120 deg rotation - cart. axis [1,1,1]   

 cryst.   s(45) = (     0         -1          0      )
                  (     0          0         -1      )
                  (    -1          0          0      )

 cart.    s(45) = (  0.0000000  0.0000000 -1.0000000 )
                  ( -1.0000000  0.0000000  0.0000000 )
                  (  0.0000000 -1.0000000  0.0000000 )


      isym = 46     inv. 120 deg rotation - cart. axis [-1,1,-1] 

 cryst.   s(46) = (     0          1          0      )
                  (     0          0          1      )
                  (    -1          0          0      )

 cart.    s(46) = (  0.0000000  0.0000000 -1.0000000 )
                  (  1.0000000  0.0000000  0.0000000 )
                  (  0.0000000  1.0000000  0.0000000 )


      isym = 47     inv. 120 deg rotation - cart. axis [1,-1,-1] 

 cryst.   s(47) = (     0          1          0      )
                  (     0          0         -1      )
                  (     1          0          0      )

 cart.    s(47) = (  0.0000000  0.0000000  1.0000000 )
                  (  1.0000000  0.0000000  0.0000000 )
                  (  0.0000000 -1.0000000  0.0000000 )


      isym = 48     inv. 120 deg rotation - cart. axis [-1,-1,1] 

 cryst.   s(48) = (     0         -1          0      )
                  (     0          0          1      )
                  (     1          0          0      )

 cart.    s(48) = (  0.0000000  0.0000000  1.0000000 )
                  ( -1.0000000  0.0000000  0.0000000 )
                  (  0.0000000  1.0000000  0.0000000 )


   Cartesian axes

     site n.     atom                  positions (alat units)
         1           Cs  tau(   1) = (   0.2500001   0.2500001   0.2500001  )
         2           Cs  tau(   2) = (   0.2500001   0.2500001   0.7499999  )
         3           Cs  tau(   3) = (   0.2500001   0.7499999   0.2500001  )
         4           Cs  tau(   4) = (   0.2500001   0.7499999   0.7499999  )
         5           Cs  tau(   5) = (   0.7499999   0.2500001   0.2500001  )
         6           Cs  tau(   6) = (   0.7499999   0.2500001   0.7499999  )
         7           Cs  tau(   7) = (   0.7499999   0.7499999   0.2500001  )
         8           Cs  tau(   8) = (   0.7499999   0.7499999   0.7499999  )
         9           Pb  tau(   9) = (   0.0000000   0.0000000   0.0000000  )
        10           Pb  tau(  10) = (   0.0000000   0.0000000   0.5000000  )
        11           Pb  tau(  11) = (   0.0000000   0.5000000   0.0000000  )
        12           Pb  tau(  12) = (   0.0000000   0.5000000   0.5000000  )
        13           Pb  tau(  13) = (   0.5000000   0.0000000   0.0000000  )
        14           Pb  tau(  14) = (   0.5000000   0.0000000   0.5000000  )
        15           Pb  tau(  15) = (   0.5000000   0.5000000   0.0000000  )
        16           Pb  tau(  16) = (   0.5000000   0.5000000   0.5000000  )
        17           I   tau(  17) = (   0.0000000   0.0000000   0.2500016  )
        18           I   tau(  18) = (   0.0000000   0.0000000   0.7499984  )
        19           I   tau(  19) = (   0.0000000   0.5000000   0.2500017  )
        20           I   tau(  20) = (   0.0000000   0.5000000   0.7499983  )
        21           I   tau(  21) = (   0.5000000   0.0000000   0.2500017  )
        22           I   tau(  22) = (   0.5000000   0.0000000   0.7499983  )
        23           I   tau(  23) = (   0.5000000   0.5000000   0.2500017  )
        24           I   tau(  24) = (   0.5000000   0.5000000   0.7499983  )
        25           I   tau(  25) = (   0.0000000   0.2500016   0.0000000  )
        26           I   tau(  26) = (   0.0000000   0.2500017   0.5000000  )
        27           I   tau(  27) = (   0.0000000   0.7499984   0.0000000  )
        28           I   tau(  28) = (   0.0000000   0.7499983   0.5000000  )
        29           I   tau(  29) = (   0.5000000   0.2500017   0.0000000  )
        30           I   tau(  30) = (   0.5000000   0.2500017   0.5000000  )
        31           I   tau(  31) = (   0.5000000   0.7499983   0.0000000  )
        32           I   tau(  32) = (   0.5000000   0.7499983   0.5000000  )
        33           I   tau(  33) = (   0.2500016   0.0000000   0.0000000  )
        34           I   tau(  34) = (   0.2500017   0.0000000   0.5000000  )
        35           I   tau(  35) = (   0.2500017   0.5000000   0.0000000  )
        36           I   tau(  36) = (   0.2500017   0.5000000   0.5000000  )
        37           I   tau(  37) = (   0.7499984   0.0000000   0.0000000  )
        38           I   tau(  38) = (   0.7499983   0.0000000   0.5000000  )
        39           I   tau(  39) = (   0.7499983   0.5000000   0.0000000  )
        40           I   tau(  40) = (   0.7499983   0.5000000   0.5000000  )

   Crystallographic axes

     site n.     atom                  positions (cryst. coord.)
         1           Cs  tau(   1) = (  0.2500001  0.2500001  0.2500001  )
         2           Cs  tau(   2) = (  0.2500001  0.2500001  0.7499999  )
         3           Cs  tau(   3) = (  0.2500001  0.7499999  0.2500001  )
         4           Cs  tau(   4) = (  0.2500001  0.7499999  0.7499999  )
         5           Cs  tau(   5) = (  0.7499999  0.2500001  0.2500001  )
         6           Cs  tau(   6) = (  0.7499999  0.2500001  0.7499999  )
         7           Cs  tau(   7) = (  0.7499999  0.7499999  0.2500001  )
         8           Cs  tau(   8) = (  0.7499999  0.7499999  0.7499999  )
         9           Pb  tau(   9) = (  0.0000000  0.0000000  0.0000000  )
        10           Pb  tau(  10) = (  0.0000000  0.0000000  0.5000000  )
        11           Pb  tau(  11) = (  0.0000000  0.5000000  0.0000000  )
        12           Pb  tau(  12) = (  0.0000000  0.5000000  0.5000000  )
        13           Pb  tau(  13) = (  0.5000000  0.0000000  0.0000000  )
        14           Pb  tau(  14) = (  0.5000000  0.0000000  0.5000000  )
        15           Pb  tau(  15) = (  0.5000000  0.5000000  0.0000000  )
        16           Pb  tau(  16) = (  0.5000000  0.5000000  0.5000000  )
        17           I   tau(  17) = (  0.0000000  0.0000000  0.2500016  )
        18           I   tau(  18) = (  0.0000000  0.0000000  0.7499984  )
        19           I   tau(  19) = (  0.0000000  0.5000000  0.2500017  )
        20           I   tau(  20) = (  0.0000000  0.5000000  0.7499983  )
        21           I   tau(  21) = (  0.5000000  0.0000000  0.2500017  )
        22           I   tau(  22) = (  0.5000000  0.0000000  0.7499983  )
        23           I   tau(  23) = (  0.5000000  0.5000000  0.2500017  )
        24           I   tau(  24) = (  0.5000000  0.5000000  0.7499983  )
        25           I   tau(  25) = (  0.0000000  0.2500016  0.0000000  )
        26           I   tau(  26) = (  0.0000000  0.2500017  0.5000000  )
        27           I   tau(  27) = (  0.0000000  0.7499984  0.0000000  )
        28           I   tau(  28) = (  0.0000000  0.7499983  0.5000000  )
        29           I   tau(  29) = (  0.5000000  0.2500017  0.0000000  )
        30           I   tau(  30) = (  0.5000000  0.2500017  0.5000000  )
        31           I   tau(  31) = (  0.5000000  0.7499983  0.0000000  )
        32           I   tau(  32) = (  0.5000000  0.7499983  0.5000000  )
        33           I   tau(  33) = (  0.2500016  0.0000000  0.0000000  )
        34           I   tau(  34) = (  0.2500017  0.0000000  0.5000000  )
        35           I   tau(  35) = (  0.2500017  0.5000000  0.0000000  )
        36           I   tau(  36) = (  0.2500017  0.5000000  0.5000000  )
        37           I   tau(  37) = (  0.7499984  0.0000000  0.0000000  )
        38           I   tau(  38) = (  0.7499983  0.0000000  0.5000000  )
        39           I   tau(  39) = (  0.7499983  0.5000000  0.0000000  )
        40           I   tau(  40) = (  0.7499983  0.5000000  0.5000000  )

     number of k points=     4  Marzari-Vanderbilt smearing, width (Ry)=  0.0147
                       cart. coord. in units 2pi/alat
        k(    1) = (   0.0000000   0.0000000   0.0000000), wk =   0.0740741
        k(    2) = (   0.0000000   0.0000000   0.3333333), wk =   0.4444444
        k(    3) = (   0.0000000   0.3333333   0.3333333), wk =   0.8888889
        k(    4) = (   0.3333333   0.3333333   0.3333333), wk =   0.5925926

                       cryst. coord.
        k(    1) = (   0.0000000   0.0000000   0.0000000), wk =   0.0740741
        k(    2) = (   0.0000000   0.0000000   0.3333333), wk =   0.4444444
        k(    3) = (   0.0000000   0.3333333   0.3333333), wk =   0.8888889
        k(    4) = (   0.3333333   0.3333333   0.3333333), wk =   0.5925926

     Dense  grid:  1356433 G-vectors     FFT dimensions: ( 144, 144, 144)

     Smooth grid:   121409 G-vectors     FFT dimensions: (  64,  64,  64)

     Dynamical RAM for                 wfc:      48.82 MB

     Dynamical RAM for     wfc (w. buffer):     244.09 MB

     Dynamical RAM for           str. fact:      62.09 MB

     Dynamical RAM for           local pot:       0.00 MB

     Dynamical RAM for          nlocal pot:     111.06 MB

     Dynamical RAM for                qrad:       4.31 MB

     Dynamical RAM for          rho,v,vnew:     130.44 MB

     Dynamical RAM for               rhoin:      43.48 MB

     Dynamical RAM for            rho*nmix:     331.16 MB

     Dynamical RAM for           G-vectors:      78.54 MB

     Dynamical RAM for          h,s,v(r/c):       8.15 MB

     Dynamical RAM for          <psi|beta>:       1.55 MB

     Dynamical RAM for                 psi:      97.64 MB

     Dynamical RAM for                hpsi:      97.64 MB

     Dynamical RAM for                spsi:      97.64 MB

     Dynamical RAM for      wfcinit/wfcrot:     127.56 MB

     Dynamical RAM for           addusdens:    4346.48 MB

     Dynamical RAM for          addusforce:    5309.01 MB

     Dynamical RAM for         addusstress:    4160.20 MB

     Estimated static dynamical RAM per process >       1.17 GB

     Estimated max dynamical RAM per process >       6.36 GB

     Initial potential from superposition of free atoms

     starting charge  351.66429, renormalised to  352.00000
     Starting wfcs are  272 randomized atomic wfcs
     Checking if some PAW data can be deallocated... 

     total cpu time spent up to now is       99.4 secs

     Self-consistent Calculation

     iteration #  1     ecut=    16.00 Ry     beta= 0.40
     Davidson diagonalization with overlap
     ethr =  1.00E-02,  avg # of iterations =  3.0

     Threshold (ethr) on eigenvalues was too large:
     Diagonalizing with lowered threshold

     Davidson diagonalization with overlap
     ethr =  5.25E-04,  avg # of iterations =  4.0

     negative rho (up, down):  2.059E-03 0.000E+00

     total cpu time spent up to now is      579.2 secs

     total energy              =  -16563.18245422 Ry
     estimated scf accuracy    <       1.86674291 Ry

     iteration #  2     ecut=    16.00 Ry     beta= 0.40
     Davidson diagonalization with overlap
     ethr =  5.30E-04,  avg # of iterations =  2.0

     negative rho (up, down):  2.376E-02 0.000E+00

     total cpu time spent up to now is      811.5 secs

     total energy              =  -16563.36425228 Ry
     estimated scf accuracy    <       0.22347190 Ry

     iteration #  3     ecut=    16.00 Ry     beta= 0.40
     Davidson diagonalization with overlap
     ethr =  6.35E-05,  avg # of iterations =  7.5

     negative rho (up, down):  4.559E-02 0.000E+00

     total cpu time spent up to now is     1076.8 secs

     total energy              =  -16563.38947565 Ry
     estimated scf accuracy    <       0.02553339 Ry

     iteration #  4     ecut=    16.00 Ry     beta= 0.40
     Davidson diagonalization with overlap
     ethr =  7.25E-06,  avg # of iterations = 15.8

     negative rho (up, down):  5.223E-02 0.000E+00

     total cpu time spent up to now is     1393.2 secs

     total energy              =  -16563.39246820 Ry
     estimated scf accuracy    <       0.00197986 Ry

     iteration #  5     ecut=    16.00 Ry     beta= 0.40
     Davidson diagonalization with overlap
     ethr =  5.62E-07,  avg # of iterations =  4.0

     negative rho (up, down):  5.308E-02 0.000E+00

     total cpu time spent up to now is     1620.4 secs

     total energy              =  -16563.39289989 Ry
     estimated scf accuracy    <       0.00020336 Ry

     iteration #  6     ecut=    16.00 Ry     beta= 0.40
     Davidson diagonalization with overlap
     ethr =  5.78E-08,  avg # of iterations =  7.8

     negative rho (up, down):  5.309E-02 0.000E+00

     total cpu time spent up to now is     1856.0 secs

     total energy              =  -16563.39294526 Ry
     estimated scf accuracy    <       0.00009861 Ry

     iteration #  7     ecut=    16.00 Ry     beta= 0.40
     Davidson diagonalization with overlap
     ethr =  2.80E-08,  avg # of iterations =  2.0

     negative rho (up, down):  5.298E-02 0.000E+00

     total cpu time spent up to now is     2061.2 secs

     total energy              =  -16563.39296440 Ry
     estimated scf accuracy    <       0.00001454 Ry

     iteration #  8     ecut=    16.00 Ry     beta= 0.40
     Davidson diagonalization with overlap
     ethr =  4.13E-09,  avg # of iterations =  2.2

     negative rho (up, down):  5.286E-02 0.000E+00

     total cpu time spent up to now is     2282.7 secs

     total energy              =  -16563.39296896 Ry
     estimated scf accuracy    <       0.00000390 Ry

     iteration #  9     ecut=    16.00 Ry     beta= 0.40
     Davidson diagonalization with overlap
     ethr =  1.11E-09,  avg # of iterations =  2.0

     negative rho (up, down):  5.290E-02 0.000E+00

     total cpu time spent up to now is     2523.8 secs

     total energy              =  -16563.39297024 Ry
     estimated scf accuracy    <       0.00000035 Ry

     iteration # 10     ecut=    16.00 Ry     beta= 0.40
     Davidson diagonalization with overlap
     ethr =  9.93E-11,  avg # of iterations =  3.8

     negative rho (up, down):  5.288E-02 0.000E+00

     total cpu time spent up to now is     2802.0 secs

     total energy              =  -16563.39297057 Ry
     estimated scf accuracy    <       0.00000004 Ry

     iteration # 11     ecut=    16.00 Ry     beta= 0.40
     Davidson diagonalization with overlap
     ethr =  1.14E-11,  avg # of iterations =  3.0

     negative rho (up, down):  5.287E-02 0.000E+00

     total cpu time spent up to now is     3049.7 secs

     End of self-consistent calculation

          k = 0.0000 0.0000 0.0000 ( 15203 PWs)   bands (ev):

   -18.5781 -18.5779 -18.5779 -18.5779 -18.5777 -18.5777 -18.5777 -18.5775
   -15.0501 -15.0501 -15.0501 -15.0449 -15.0449 -15.0449 -15.0439 -15.0439
   -15.0289 -15.0289 -15.0289 -15.0263 -15.0263 -15.0185 -15.0185 -15.0185
   -15.0185 -15.0185 -15.0185 -15.0168 -15.0168 -15.0168 -14.9910 -14.9910
   -14.9910 -14.9860 -14.9860 -14.9860 -14.9858 -14.9858 -14.9858 -14.9706
   -14.9706 -14.9706 -14.9705 -14.9705 -14.9705 -14.9562 -14.9562 -14.9562
    -9.3710  -9.1696  -9.1696  -9.1696  -8.9197  -8.9197  -8.9197  -8.8390
    -8.8390  -8.8390  -8.8390  -8.8390  -8.8390  -8.8385  -8.8385  -8.8385
    -8.8335  -8.8335  -8.8335  -8.6111  -8.6111  -8.6099  -8.6099  -8.6099
    -5.9797  -5.4525  -5.4525  -5.4525  -5.3683  -5.3683  -5.3683  -5.3552
    -5.3552  -5.3552  -5.3552  -5.3552  -5.3552  -5.3551  -5.3551  -5.3551
    -5.3512  -5.3512  -5.3512  -5.3512  -5.3512  -5.3512  -5.3506  -5.3506
    -5.3506  -5.3481  -5.3481  -5.3481  -4.9626  -4.9626  -4.9625  -4.4891
    -0.6589  -0.6589  -0.6589  -0.5589  -0.5589  -0.5589  -0.5589  -0.5589
    -0.5589  -0.4296  -0.4296  -0.4296   0.6459   0.6459   0.6459   0.7785
     0.7785   0.7785   0.9082   0.9082   0.9082   1.2294   1.2294   1.2294
     1.2294   1.2294   1.2294   1.3414   1.3414   1.3414   1.3414   1.3414
     1.3414   1.3921   1.3921   1.3921   1.3921   1.3921   1.3921   1.4493
     1.4493   1.4493   1.5070   1.5070   1.5070   1.5092   1.5092   1.5774
     1.5774   1.5774   1.5964   1.5964   1.5964   1.5964   1.5964   1.5964
     1.6846   1.6846   1.6846   1.8837   1.8837   1.8837   2.0772   2.0772
     2.0772   2.0893   2.0893   2.0893   2.2394   2.2394   2.2394   2.5984
     4.0758   4.0758   4.0758   4.4984   4.4984   4.4984   4.4984   4.4984
     4.4984   4.8224   4.8224   4.8224   5.9339   6.7961   7.0149   7.0149
     7.3587   7.3587   7.3587   7.4495   7.4495   7.4495   7.4898   7.4898
     7.4898   7.6398   7.6398   7.6398   7.7871   7.7871   7.7871   7.7871
     7.7872   7.7872   7.7958

     occupation numbers 
     1.0000   1.0000   1.0000   1.0000   1.0000   1.0000   1.0000   1.0000
     1.0000   1.0000   1.0000   1.0000   1.0000   1.0000   1.0000   1.0000
     1.0000   1.0000   1.0000   1.0000   1.0000   1.0000   1.0000   1.0000
     1.0000   1.0000   1.0000   1.0000   1.0000   1.0000   1.0000   1.0000
     1.0000   1.0000   1.0000   1.0000   1.0000   1.0000   1.0000   1.0000
     1.0000   1.0000   1.0000   1.0000   1.0000   1.0000   1.0000   1.0000
     1.0000   1.0000   1.0000   1.0000   1.0000   1.0000   1.0000   1.0000
     1.0000   1.0000   1.0000   1.0000   1.0000   1.0000   1.0000   1.0000
     1.0000   1.0000   1.0000   1.0000   1.0000   1.0000   1.0000   1.0000
     1.0000   1.0000   1.0000   1.0000   1.0000   1.0000   1.0000   1.0000
     1.0000   1.0000   1.0000   1.0000   1.0000   1.0000   1.0000   1.0000
     1.0000   1.0000   1.0000   1.0000   1.0000   1.0000   1.0000   1.0000
     1.0000   1.0000   1.0000   1.0000   1.0000   1.0000   1.0000   1.0000
     1.0000   1.0000   1.0000   1.0000   1.0000   1.0000   1.0000   1.0000
     1.0000   1.0000   1.0000   1.0000   1.0000   1.0000   1.0000   1.0000
     1.0000   1.0000   1.0000   1.0000   1.0000   1.0000   1.0000   1.0000
     1.0000   1.0000   1.0000   1.0000   1.0000   1.0000   1.0000   1.0000
     1.0000   1.0000   1.0000   1.0000   1.0000   1.0000   1.0000   1.0000
     1.0000   1.0000   1.0001   1.0001   1.0001   1.0001   1.0001   1.0008
     1.0008   1.0008   1.0013   1.0013   1.0013   1.0013   1.0013   1.0013
     1.0076   1.0076   1.0076   1.0767   1.0767   1.0767   0.8514   0.8514
     0.8514   0.8124   0.8124   0.8124   0.2841   0.2841   0.2841   0.0004
     0.0000   0.0000   0.0000   0.0000   0.0000   0.0000   0.0000   0.0000
     0.0000   0.0000   0.0000   0.0000   0.0000   0.0000   0.0000   0.0000
     0.0000   0.0000   0.0000   0.0000   0.0000   0.0000   0.0000   0.0000
     0.0000   0.0000   0.0000   0.0000   0.0000   0.0000   0.0000   0.0000
     0.0000   0.0000   0.0000

          k = 0.0000 0.0000 0.3333 ( 15135 PWs)   bands (ev):

   -18.5781 -18.5780 -18.5778 -18.5778 -18.5777 -18.5777 -18.5776 -18.5775
   -15.0667 -15.0468 -15.0468 -15.0454 -15.0424 -15.0393 -15.0393 -15.0333
   -15.0175 -15.0162 -15.0162 -15.0090 -15.0090 -15.0066 -15.0066 -15.0050
   -15.0034 -15.0011 -14.9967 -14.9966 -14.9826 -14.9826 -14.9826 -14.9821
   -14.9814 -14.9814 -14.9812 -14.9812 -14.9807 -14.9802 -14.9802 -14.9785
   -14.9785 -14.9770 -14.9720 -14.9720 -14.9680 -14.9680 -14.9670 -14.9670
    -9.3341  -9.2396  -9.1317  -9.1317  -9.0286  -9.0286  -8.8992  -8.8563
    -8.8389  -8.8389  -8.8387  -8.8387  -8.8376  -8.8376  -8.8349  -8.8349
    -8.7619  -8.7348  -8.7348  -8.6544  -8.6421  -8.6421  -8.6111  -8.6108
    -5.8583  -5.5966  -5.3761  -5.3761  -5.3649  -5.3649  -5.3632  -5.3584
    -5.3584  -5.3547  -5.3547  -5.3542  -5.3542  -5.3541  -5.3541  -5.3530
    -5.3528  -5.3523  -5.3523  -5.3522  -5.3522  -5.3504  -5.3504  -5.3503
    -5.3489  -5.3489  -5.3224  -5.3224  -5.0993  -5.0993  -4.8644  -4.6300
    -0.6352  -0.6352  -0.5860  -0.5860  -0.5290  -0.5290  -0.4644  -0.4644
    -0.2685  -0.1673  -0.1673  -0.0286   0.5441   0.6784   0.7064   0.7064
     0.7146   0.7146   0.7452   0.8376   0.8376   0.8402   0.8402   0.9141
     1.0089   1.0089   1.2241   1.2241   1.2502   1.2502   1.3544   1.3544
     1.3801   1.3801   1.4079   1.4079   1.4445   1.4445   1.4777   1.5095
     1.5131   1.5357   1.5357   1.5406   1.5406   1.5446   1.5446   1.5447
     1.5802   1.5802   1.6109   1.6109   1.6286   1.6286   1.6395   1.6501
     1.6501   1.6549   1.7044   1.7044   1.9079   1.9079   1.9452   1.9452
     1.9659   1.9659   2.0192   2.0192   2.0814   2.0869   2.2605   2.3517
     4.1957   4.1957   4.4052   4.4052   4.5899   4.5899   4.7522   4.7522
     5.1157   5.4237   5.4237   5.7003   6.1862   6.6337   6.8220   6.9535
     6.9535   6.9894   7.1525   7.2209   7.2738   7.4875   7.4875   7.4906
     7.4976   7.4976   7.4988   7.6405   7.6406   7.6459   7.6460   7.7145
     7.7893   7.7893   7.8170

     occupation numbers 
     1.0000   1.0000   1.0000   1.0000   1.0000   1.0000   1.0000   1.0000
     1.0000   1.0000   1.0000   1.0000   1.0000   1.0000   1.0000   1.0000
     1.0000   1.0000   1.0000   1.0000   1.0000   1.0000   1.0000   1.0000
     1.0000   1.0000   1.0000   1.0000   1.0000   1.0000   1.0000   1.0000
     1.0000   1.0000   1.0000   1.0000   1.0000   1.0000   1.0000   1.0000
     1.0000   1.0000   1.0000   1.0000   1.0000   1.0000   1.0000   1.0000
     1.0000   1.0000   1.0000   1.0000   1.0000   1.0000   1.0000   1.0000
     1.0000   1.0000   1.0000   1.0000   1.0000   1.0000   1.0000   1.0000
     1.0000   1.0000   1.0000   1.0000   1.0000   1.0000   1.0000   1.0000
     1.0000   1.0000   1.0000   1.0000   1.0000   1.0000   1.0000   1.0000
     1.0000   1.0000   1.0000   1.0000   1.0000   1.0000   1.0000   1.0000
     1.0000   1.0000   1.0000   1.0000   1.0000   1.0000   1.0000   1.0000
     1.0000   1.0000   1.0000   1.0000   1.0000   1.0000   1.0000   1.0000
     1.0000   1.0000   1.0000   1.0000   1.0000   1.0000   1.0000   1.0000
     1.0000   1.0000   1.0000   1.0000   1.0000   1.0000   1.0000   1.0000
     1.0000   1.0000   1.0000   1.0000   1.0000   1.0000   1.0000   1.0000
     1.0000   1.0000   1.0000   1.0000   1.0000   1.0000   1.0000   1.0000
     1.0000   1.0000   1.0000   1.0000   1.0000   1.0000   1.0001   1.0001
     1.0002   1.0003   1.0003   1.0003   1.0003   1.0004   1.0004   1.0004
     1.0009   1.0009   1.0018   1.0018   1.0026   1.0026   1.0032   1.0040
     1.0040   1.0044   1.0107   1.0107   1.0825   1.0825   1.0790   1.0790
     1.0677   1.0677   0.9986   0.9986   0.8381   0.8203   0.2272   0.0684
     0.0000   0.0000   0.0000   0.0000   0.0000   0.0000   0.0000   0.0000
     0.0000   0.0000   0.0000   0.0000   0.0000   0.0000   0.0000   0.0000
     0.0000   0.0000   0.0000   0.0000   0.0000   0.0000   0.0000   0.0000
     0.0000   0.0000   0.0000   0.0000   0.0000   0.0000   0.0000   0.0000
     0.0000   0.0000   0.0000

          k = 0.0000 0.3333 0.3333 ( 15138 PWs)   bands (ev):

   -18.5780 -18.5779 -18.5779 -18.5778 -18.5778 -18.5777 -18.5777 -18.5776
   -15.0484 -15.0484 -15.0461 -15.0452 -15.0370 -15.0306 -15.0268 -15.0268
   -15.0227 -15.0227 -15.0222 -15.0170 -15.0110 -15.0081 -15.0081 -15.0081
   -14.9981 -14.9937 -14.9936 -14.9935 -14.9865 -14.9865 -14.9861 -14.9860
   -14.9860 -14.9854 -14.9840 -14.9820 -14.9816 -14.9807 -14.9807 -14.9784
   -14.9772 -14.9760 -14.9760 -14.9750 -14.9750 -14.9745 -14.9733 -14.9725
    -9.2975  -9.2031  -9.2031  -9.1075  -9.0964  -9.0009  -9.0009  -8.9300
    -8.8384  -8.8379  -8.8379  -8.8359  -8.7847  -8.7798  -8.7640  -8.7640
    -8.7450  -8.7450  -8.7121  -8.6713  -8.6680  -8.6419  -8.6419  -8.6340
    -5.7428  -5.4921  -5.4921  -5.3639  -5.3628  -5.3613  -5.3581  -5.3581
    -5.3578  -5.3577  -5.3554  -5.3548  -5.3548  -5.3539  -5.3539  -5.3533
    -5.3514  -5.3514  -5.3514  -5.3514  -5.3511  -5.3511  -5.3510  -5.3510
    -5.3509  -5.3497  -5.3494  -5.2340  -5.2323  -5.0010  -5.0010  -4.7686
    -0.6103  -0.5574  -0.5574  -0.4971  -0.3082  -0.2013  -0.2013  -0.1910
    -0.1832  -0.0819  -0.0723  -0.0723   0.5661   0.5661   0.5742   0.6400
     0.7288   0.7288   0.7349   0.7349   0.7607   0.7665   0.7937   0.8161
     0.8576   1.0133   1.0133   1.0482   1.0851   1.1752   1.2084   1.2084
     1.2556   1.2556   1.3570   1.3768   1.3968   1.4319   1.4319   1.4397
     1.5152   1.5522   1.5522   1.5567   1.5572   1.5754   1.5754   1.5912
     1.5958   1.6069   1.6199   1.6199   1.6269   1.6269   1.6962   1.7223
     1.7223   1.7332   1.7510   1.7657   1.7743   1.7743   1.8889   1.9189
     1.9207   1.9258   1.9723   1.9723   2.0076   2.0243   2.0243   2.0804
     4.3061   4.5021   4.5021   4.6755   5.1671   5.2147   5.3456   5.3456
     5.4773   5.5091   5.6338   5.6338   6.3960   6.6924   6.6924   6.8170
     6.8803   6.8951   6.8951   7.0997   7.0997   7.1234   7.1403   7.1819
     7.3297   7.3451   7.3782   7.4575   7.4829   7.4829   7.5381   7.6272
     7.6272   7.6522   7.6522

     occupation numbers 
     1.0000   1.0000   1.0000   1.0000   1.0000   1.0000   1.0000   1.0000
     1.0000   1.0000   1.0000   1.0000   1.0000   1.0000   1.0000   1.0000
     1.0000   1.0000   1.0000   1.0000   1.0000   1.0000   1.0000   1.0000
     1.0000   1.0000   1.0000   1.0000   1.0000   1.0000   1.0000   1.0000
     1.0000   1.0000   1.0000   1.0000   1.0000   1.0000   1.0000   1.0000
     1.0000   1.0000   1.0000   1.0000   1.0000   1.0000   1.0000   1.0000
     1.0000   1.0000   1.0000   1.0000   1.0000   1.0000   1.0000   1.0000
     1.0000   1.0000   1.0000   1.0000   1.0000   1.0000   1.0000   1.0000
     1.0000   1.0000   1.0000   1.0000   1.0000   1.0000   1.0000   1.0000
     1.0000   1.0000   1.0000   1.0000   1.0000   1.0000   1.0000   1.0000
     1.0000   1.0000   1.0000   1.0000   1.0000   1.0000   1.0000   1.0000
     1.0000   1.0000   1.0000   1.0000   1.0000   1.0000   1.0000   1.0000
     1.0000   1.0000   1.0000   1.0000   1.0000   1.0000   1.0000   1.0000
     1.0000   1.0000   1.0000   1.0000   1.0000   1.0000   1.0000   1.0000
     1.0000   1.0000   1.0000   1.0000   1.0000   1.0000   1.0000   1.0000
     1.0000   1.0000   1.0000   1.0000   1.0000   1.0000   1.0000   1.0000
     1.0000   1.0000   1.0000   1.0000   1.0000   1.0000   1.0000   1.0000
     1.0000   1.0000   1.0000   1.0000   1.0000   1.0000   1.0000   1.0000
     1.0002   1.0005   1.0005   1.0005   1.0005   1.0008   1.0008   1.0011
     1.0013   1.0016   1.0022   1.0022   1.0025   1.0025   1.0093   1.0143
     1.0143   1.0169   1.0218   1.0266   1.0297   1.0297   1.0784   1.0833
     1.0833   1.0831   1.0626   1.0626   1.0190   0.9886   0.9886   0.8414
     0.0000   0.0000   0.0000   0.0000   0.0000   0.0000   0.0000   0.0000
     0.0000   0.0000   0.0000   0.0000   0.0000   0.0000   0.0000   0.0000
     0.0000   0.0000   0.0000   0.0000   0.0000   0.0000   0.0000   0.0000
     0.0000   0.0000   0.0000   0.0000   0.0000   0.0000   0.0000   0.0000
     0.0000   0.0000   0.0000

          k = 0.3333 0.3333 0.3333 ( 15177 PWs)   bands (ev):

   -18.5780 -18.5779 -18.5779 -18.5779 -18.5778 -18.5778 -18.5778 -18.5776
   -15.0436 -15.0436 -15.0436 -15.0435 -15.0435 -15.0369 -15.0369 -15.0369
   -15.0257 -15.0257 -15.0257 -15.0183 -15.0183 -15.0183 -15.0044 -15.0044
   -14.9954 -14.9954 -14.9954 -14.9953 -14.9953 -14.9936 -14.9910 -14.9910
   -14.9910 -14.9905 -14.9905 -14.9905 -14.9867 -14.9867 -14.9867 -14.9865
   -14.9864 -14.9864 -14.9862 -14.9795 -14.9795 -14.9795 -14.9740 -14.9740
    -9.2615  -9.1683  -9.1683  -9.1683  -9.0772  -9.0772  -9.0772  -8.9985
    -8.7835  -8.7835  -8.7835  -8.7810  -8.7810  -8.7653  -8.7653  -8.7653
    -8.7294  -8.7294  -8.7294  -8.6706  -8.6706  -8.6689  -8.6689  -8.6689
    -5.6312  -5.3977  -5.3977  -5.3977  -5.3616  -5.3616  -5.3571  -5.3571
    -5.3571  -5.3558  -5.3558  -5.3558  -5.3553  -5.3553  -5.3553  -5.3550
    -5.3550  -5.3547  -5.3547  -5.3547  -5.3515  -5.3498  -5.3498  -5.3498
    -5.3487  -5.3339  -5.3339  -5.3339  -5.1368  -5.1368  -5.1368  -4.9056
    -0.2815  -0.2815  -0.2230  -0.2230  -0.2230  -0.1220  -0.1220  -0.1220
    -0.1126  -0.1126  -0.1126  -0.0996   0.5866   0.5866   0.5866   0.6020
     0.6020   0.6020   0.6572   0.6572   0.6572   0.6807   0.6807   0.7069
     0.9900   0.9900   1.0192   1.0192   1.0192   1.1608   1.1608   1.1608
     1.2038   1.2038   1.2038   1.2881   1.2881   1.2881   1.3444   1.3444
     1.4284   1.4355   1.4355   1.4355   1.4533   1.4533   1.4533   1.6177
     1.6939   1.7028   1.7028   1.7028   1.7293   1.7293   1.7446   1.7446
     1.7446   1.7589   1.7589   1.7589   1.7824   1.7824   1.7824   1.8129
     1.8129   1.8129   1.9095   1.9095   1.9261   1.9261   1.9261   1.9487
     5.2441   5.2441   5.3063   5.3990   5.3991   5.3991   5.4338   5.4338
     5.4338   5.5619   5.5619   5.5619   6.5377   6.7384   6.7384   6.7384
     6.8033   6.8033   6.8033   6.9297   6.9297   6.9297   7.0684   7.0684
     7.0909   7.1557   7.1595   7.1595   7.1596   7.3072   7.3072   7.3072
     7.4343   7.4343   7.6933

     occupation numbers 
     1.0000   1.0000   1.0000   1.0000   1.0000   1.0000   1.0000   1.0000
     1.0000   1.0000   1.0000   1.0000   1.0000   1.0000   1.0000   1.0000
     1.0000   1.0000   1.0000   1.0000   1.0000   1.0000   1.0000   1.0000
     1.0000   1.0000   1.0000   1.0000   1.0000   1.0000   1.0000   1.0000
     1.0000   1.0000   1.0000   1.0000   1.0000   1.0000   1.0000   1.0000
     1.0000   1.0000   1.0000   1.0000   1.0000   1.0000   1.0000   1.0000
     1.0000   1.0000   1.0000   1.0000   1.0000   1.0000   1.0000   1.0000
     1.0000   1.0000   1.0000   1.0000   1.0000   1.0000   1.0000   1.0000
     1.0000   1.0000   1.0000   1.0000   1.0000   1.0000   1.0000   1.0000
     1.0000   1.0000   1.0000   1.0000   1.0000   1.0000   1.0000   1.0000
     1.0000   1.0000   1.0000   1.0000   1.0000   1.0000   1.0000   1.0000
     1.0000   1.0000   1.0000   1.0000   1.0000   1.0000   1.0000   1.0000
     1.0000   1.0000   1.0000   1.0000   1.0000   1.0000   1.0000   1.0000
     1.0000   1.0000   1.0000   1.0000   1.0000   1.0000   1.0000   1.0000
     1.0000   1.0000   1.0000   1.0000   1.0000   1.0000   1.0000   1.0000
     1.0000   1.0000   1.0000   1.0000   1.0000   1.0000   1.0000   1.0000
     1.0000   1.0000   1.0000   1.0000   1.0000   1.0000   1.0000   1.0000
     1.0000   1.0000   1.0000   1.0000   1.0000   1.0000   1.0000   1.0000
     1.0000   1.0000   1.0000   1.0000   1.0000   1.0000   1.0000   1.0021
     1.0090   1.0104   1.0104   1.0104   1.0159   1.0159   1.0200   1.0200
     1.0200   1.0243   1.0243   1.0243   1.0328   1.0328   1.0328   1.0458
     1.0458   1.0458   1.0827   1.0827   1.0831   1.0831   1.0831   1.0776
     0.0000   0.0000   0.0000   0.0000   0.0000   0.0000   0.0000   0.0000
     0.0000   0.0000   0.0000   0.0000   0.0000   0.0000   0.0000   0.0000
     0.0000   0.0000   0.0000   0.0000   0.0000   0.0000   0.0000   0.0000
     0.0000   0.0000   0.0000   0.0000   0.0000   0.0000   0.0000   0.0000
     0.0000   0.0000   0.0000

     the Fermi energy is     2.2026 ev

!    total energy              =  -16563.39297069 Ry
     estimated scf accuracy    <          3.3E-09 Ry
     smearing contrib. (-TS)   =       0.04607359 Ry
     internal energy E=F+TS    =  -16563.43904427 Ry

     The total energy is F=E-TS. E is the sum of the following terms:
     one-electron contribution =    -760.34488126 Ry
     hartree contribution      =     537.47905947 Ry
     xc contribution           =   -1594.11159503 Ry
     ewald contribution        =   -1229.22289246 Ry
     one-center paw contrib.   =  -13517.23873499 Ry
      -> PAW hartree energy AE =    1042.41891902 Ry
      -> PAW hartree energy PS =   -1038.99699489 Ry
      -> PAW xc energy AE      =  -14837.67144650 Ry
      -> PAW xc energy PS      =    1317.01078738 Ry
      -> total E_H with PAW    =     540.90098360 Ry
      -> total E_XC with PAW   =  -15114.77225415 Ry

     convergence has been achieved in  11 iterations

     negative rho (up, down):  5.287E-02 0.000E+00

     Forces acting on atoms (cartesian axes, Ry/au):

     atom    1 type  1   force =     0.00000001    0.00000001    0.00000001
     atom    2 type  1   force =     0.00000001    0.00000001   -0.00000001
     atom    3 type  1   force =     0.00000001   -0.00000001    0.00000001
     atom    4 type  1   force =     0.00000001   -0.00000001   -0.00000001
     atom    5 type  1   force =    -0.00000001    0.00000001    0.00000001
     atom    6 type  1   force =    -0.00000001    0.00000001   -0.00000001
     atom    7 type  1   force =    -0.00000001   -0.00000001    0.00000001
     atom    8 type  1   force =    -0.00000001   -0.00000001   -0.00000001
     atom    9 type  3   force =     0.00000000    0.00000000    0.00000000
     atom   10 type  3   force =     0.00000000    0.00000000    0.00000000
     atom   11 type  3   force =     0.00000000    0.00000000    0.00000000
     atom   12 type  3   force =     0.00000000    0.00000000    0.00000000
     atom   13 type  3   force =     0.00000000    0.00000000    0.00000000
     atom   14 type  3   force =     0.00000000    0.00000000    0.00000000
     atom   15 type  3   force =     0.00000000    0.00000000    0.00000000
     atom   16 type  3   force =     0.00000000    0.00000000    0.00000000
     atom   17 type  2   force =     0.00000000    0.00000000   -0.00000389
     atom   18 type  2   force =     0.00000000    0.00000000    0.00000389
     atom   19 type  2   force =     0.00000000    0.00000000   -0.00000517
     atom   20 type  2   force =     0.00000000    0.00000000    0.00000517
     atom   21 type  2   force =    -0.00000000    0.00000000   -0.00000517
     atom   22 type  2   force =     0.00000000    0.00000000    0.00000517
     atom   23 type  2   force =     0.00000000    0.00000000   -0.00000412
     atom   24 type  2   force =     0.00000000    0.00000000    0.00000412
     atom   25 type  2   force =     0.00000000   -0.00000389    0.00000000
     atom   26 type  2   force =     0.00000000   -0.00000517   -0.00000000
     atom   27 type  2   force =     0.00000000    0.00000389    0.00000000
     atom   28 type  2   force =     0.00000000    0.00000517   -0.00000000
     atom   29 type  2   force =     0.00000000   -0.00000517    0.00000000
     atom   30 type  2   force =     0.00000000   -0.00000412    0.00000000
     atom   31 type  2   force =     0.00000000    0.00000517    0.00000000
     atom   32 type  2   force =    -0.00000000    0.00000412   -0.00000000
     atom   33 type  2   force =    -0.00000389    0.00000000    0.00000000
     atom   34 type  2   force =    -0.00000517   -0.00000000   -0.00000000
     atom   35 type  2   force =    -0.00000517    0.00000000    0.00000000
     atom   36 type  2   force =    -0.00000412    0.00000000    0.00000000
     atom   37 type  2   force =     0.00000389    0.00000000    0.00000000
     atom   38 type  2   force =     0.00000517    0.00000000    0.00000000
     atom   39 type  2   force =     0.00000517    0.00000000    0.00000000
     atom   40 type  2   force =     0.00000412   -0.00000000    0.00000000
     The non-local contrib.  to forces
     atom    1 type  1   force =    -0.00000058   -0.00000058   -0.00000058
     atom    2 type  1   force =    -0.00000058   -0.00000058    0.00000058
     atom    3 type  1   force =    -0.00000058    0.00000058   -0.00000058
     atom    4 type  1   force =    -0.00000058    0.00000058    0.00000058
     atom    5 type  1   force =     0.00000058   -0.00000058   -0.00000058
     atom    6 type  1   force =     0.00000058   -0.00000058    0.00000058
     atom    7 type  1   force =     0.00000058    0.00000058   -0.00000058
     atom    8 type  1   force =     0.00000058    0.00000058    0.00000058
     atom    9 type  3   force =     0.00000000    0.00000000    0.00000000
     atom   10 type  3   force =     0.00000000    0.00000000    0.00000000
     atom   11 type  3   force =     0.00000000    0.00000000    0.00000000
     atom   12 type  3   force =     0.00000000    0.00000000    0.00000000
     atom   13 type  3   force =     0.00000000    0.00000000    0.00000000
     atom   14 type  3   force =     0.00000000    0.00000000    0.00000000
     atom   15 type  3   force =     0.00000000    0.00000000    0.00000000
     atom   16 type  3   force =     0.00000000    0.00000000    0.00000000
     atom   17 type  2   force =     0.00000000   -0.00000000    0.00000385
     atom   18 type  2   force =     0.00000000    0.00000000   -0.00000385
     atom   19 type  2   force =     0.00000000    0.00000000    0.00000094
     atom   20 type  2   force =     0.00000000    0.00000000   -0.00000094
     atom   21 type  2   force =     0.00000000    0.00000000    0.00000094
     atom   22 type  2   force =     0.00000000    0.00000000   -0.00000094
     atom   23 type  2   force =     0.00000000    0.00000000    0.00000191
     atom   24 type  2   force =     0.00000000    0.00000000   -0.00000191
     atom   25 type  2   force =     0.00000000    0.00000385    0.00000000
     atom   26 type  2   force =     0.00000000    0.00000094    0.00000000
     atom   27 type  2   force =     0.00000000   -0.00000385    0.00000000
     atom   28 type  2   force =     0.00000000   -0.00000094    0.00000000
     atom   29 type  2   force =     0.00000000    0.00000094    0.00000000
     atom   30 type  2   force =     0.00000000    0.00000191    0.00000000
     atom   31 type  2   force =    -0.00000000   -0.00000094    0.00000000
     atom   32 type  2   force =     0.00000000   -0.00000191    0.00000000
     atom   33 type  2   force =     0.00000385   -0.00000000    0.00000000
     atom   34 type  2   force =     0.00000094    0.00000000    0.00000000
     atom   35 type  2   force =     0.00000094    0.00000000    0.00000000
     atom   36 type  2   force =     0.00000191    0.00000000    0.00000000
     atom   37 type  2   force =    -0.00000385    0.00000000   -0.00000000
     atom   38 type  2   force =    -0.00000094    0.00000000    0.00000000
     atom   39 type  2   force =    -0.00000094    0.00000000    0.00000000
     atom   40 type  2   force =    -0.00000191    0.00000000    0.00000000
     The ionic contribution  to forces
     atom    1 type  1   force =    -0.00004935   -0.00004935   -0.00004935
     atom    2 type  1   force =    -0.00004935   -0.00004935    0.00004935
     atom    3 type  1   force =    -0.00004935    0.00004935   -0.00004935
     atom    4 type  1   force =    -0.00004935    0.00004935    0.00004935
     atom    5 type  1   force =     0.00004935   -0.00004935   -0.00004935
     atom    6 type  1   force =     0.00004935   -0.00004935    0.00004935
     atom    7 type  1   force =     0.00004935    0.00004935   -0.00004935
     atom    8 type  1   force =     0.00004935    0.00004935    0.00004935
     atom    9 type  3   force =    -0.00000000   -0.00000000   -0.00000000
     atom   10 type  3   force =     0.00000000    0.00000000    0.00000000
     atom   11 type  3   force =     0.00000000    0.00000000    0.00000000
     atom   12 type  3   force =    -0.00000000    0.00000000    0.00000000
     atom   13 type  3   force =     0.00000000    0.00000000    0.00000000
     atom   14 type  3   force =     0.00000000   -0.00000000    0.00000000
     atom   15 type  3   force =     0.00000000    0.00000000   -0.00000000
     atom   16 type  3   force =     0.00000000    0.00000000    0.00000000
     atom   17 type  2   force =    -0.00000000   -0.00000000   -0.00020855
     atom   18 type  2   force =    -0.00000000   -0.00000000    0.00020855
     atom   19 type  2   force =    -0.00000000    0.00000000   -0.00021075
     atom   20 type  2   force =    -0.00000000    0.00000000    0.00021075
     atom   21 type  2   force =     0.00000000   -0.00000000   -0.00021075
     atom   22 type  2   force =     0.00000000   -0.00000000    0.00021075
     atom   23 type  2   force =     0.00000000    0.00000000   -0.00021115
     atom   24 type  2   force =    -0.00000000   -0.00000000    0.00021115
     atom   25 type  2   force =    -0.00000000   -0.00020855   -0.00000000
     atom   26 type  2   force =    -0.00000000   -0.00021075    0.00000000
     atom   27 type  2   force =    -0.00000000    0.00020855   -0.00000000
     atom   28 type  2   force =    -0.00000000    0.00021075    0.00000000
     atom   29 type  2   force =     0.00000000   -0.00021075   -0.00000000
     atom   30 type  2   force =     0.00000000   -0.00021115    0.00000000
     atom   31 type  2   force =     0.00000000    0.00021075   -0.00000000
     atom   32 type  2   force =    -0.00000000    0.00021115   -0.00000000
     atom   33 type  2   force =    -0.00020855   -0.00000000   -0.00000000
     atom   34 type  2   force =    -0.00021075   -0.00000000    0.00000000
     atom   35 type  2   force =    -0.00021075    0.00000000   -0.00000000
     atom   36 type  2   force =    -0.00021115    0.00000000    0.00000000
     atom   37 type  2   force =     0.00020855   -0.00000000   -0.00000000
     atom   38 type  2   force =     0.00021075   -0.00000000    0.00000000
     atom   39 type  2   force =     0.00021075    0.00000000   -0.00000000
     atom   40 type  2   force =     0.00021115   -0.00000000   -0.00000000
     The local contribution  to forces
     atom    1 type  1   force =     0.00004961    0.00004961    0.00004961
     atom    2 type  1   force =     0.00004961    0.00004961   -0.00004961
     atom    3 type  1   force =     0.00004961   -0.00004961    0.00004961
     atom    4 type  1   force =     0.00004961   -0.00004961   -0.00004961
     atom    5 type  1   force =    -0.00004961    0.00004961    0.00004961
     atom    6 type  1   force =    -0.00004961    0.00004961   -0.00004961
     atom    7 type  1   force =    -0.00004961   -0.00004961    0.00004961
     atom    8 type  1   force =    -0.00004961   -0.00004961   -0.00004961
     atom    9 type  3   force =    -0.00000000    0.00000000    0.00000000
     atom   10 type  3   force =    -0.00000000    0.00000000    0.00000000
     atom   11 type  3   force =    -0.00000000    0.00000000    0.00000000
     atom   12 type  3   force =    -0.00000000    0.00000000    0.00000000
     atom   13 type  3   force =     0.00000000    0.00000000    0.00000000
     atom   14 type  3   force =     0.00000000    0.00000000    0.00000000
     atom   15 type  3   force =     0.00000000    0.00000000    0.00000000
     atom   16 type  3   force =     0.00000000    0.00000000    0.00000000
     atom   17 type  2   force =    -0.00000000   -0.00000000    0.00021088
     atom   18 type  2   force =    -0.00000000   -0.00000000   -0.00021088
     atom   19 type  2   force =    -0.00000000    0.00000000    0.00019710
     atom   20 type  2   force =    -0.00000000    0.00000000   -0.00019710
     atom   21 type  2   force =     0.00000000   -0.00000000    0.00019710
     atom   22 type  2   force =     0.00000000   -0.00000000   -0.00019710
     atom   23 type  2   force =     0.00000000    0.00000000    0.00020262
     atom   24 type  2   force =    -0.00000000   -0.00000000   -0.00020262
     atom   25 type  2   force =    -0.00000000    0.00021088   -0.00000000
     atom   26 type  2   force =    -0.00000000    0.00019710    0.00000000
     atom   27 type  2   force =    -0.00000000   -0.00021088   -0.00000000
     atom   28 type  2   force =    -0.00000000   -0.00019710    0.00000000
     atom   29 type  2   force =     0.00000000    0.00019710   -0.00000000
     atom   30 type  2   force =     0.00000000    0.00020262    0.00000000
     atom   31 type  2   force =     0.00000000   -0.00019710   -0.00000000
     atom   32 type  2   force =     0.00000000   -0.00020262    0.00000000
     atom   33 type  2   force =     0.00021088   -0.00000000   -0.00000000
     atom   34 type  2   force =     0.00019710   -0.00000000    0.00000000
     atom   35 type  2   force =     0.00019710    0.00000000   -0.00000000
     atom   36 type  2   force =     0.00020262    0.00000000    0.00000000
     atom   37 type  2   force =    -0.00021088   -0.00000000   -0.00000000
     atom   38 type  2   force =    -0.00019710   -0.00000000    0.00000000
     atom   39 type  2   force =    -0.00019710    0.00000000   -0.00000000
     atom   40 type  2   force =    -0.00020262    0.00000000    0.00000000
     The core correction contribution to forces
     atom    1 type  1   force =     0.00000011    0.00000011    0.00000011
     atom    2 type  1   force =     0.00000011    0.00000011   -0.00000011
     atom    3 type  1   force =     0.00000011   -0.00000011    0.00000011
     atom    4 type  1   force =     0.00000011   -0.00000011   -0.00000011
     atom    5 type  1   force =    -0.00000011    0.00000011    0.00000011
     atom    6 type  1   force =    -0.00000011    0.00000011   -0.00000011
     atom    7 type  1   force =    -0.00000011   -0.00000011    0.00000011
     atom    8 type  1   force =    -0.00000011   -0.00000011   -0.00000011
     atom    9 type  3   force =     0.00000000    0.00000000    0.00000000
     atom   10 type  3   force =    -0.00000000   -0.00000000    0.00000000
     atom   11 type  3   force =    -0.00000000    0.00000000   -0.00000000
     atom   12 type  3   force =     0.00000000   -0.00000000   -0.00000000
     atom   13 type  3   force =     0.00000000   -0.00000000   -0.00000000
     atom   14 type  3   force =    -0.00000000    0.00000000   -0.00000000
     atom   15 type  3   force =    -0.00000000   -0.00000000    0.00000000
     atom   16 type  3   force =     0.00000000    0.00000000    0.00000000
     atom   17 type  2   force =     0.00000000    0.00000000    0.00000032
     atom   18 type  2   force =     0.00000000    0.00000000   -0.00000032
     atom   19 type  2   force =     0.00000000   -0.00000000   -0.00000001
     atom   20 type  2   force =     0.00000000   -0.00000000    0.00000001
     atom   21 type  2   force =    -0.00000000    0.00000000   -0.00000001
     atom   22 type  2   force =    -0.00000000    0.00000000    0.00000001
     atom   23 type  2   force =    -0.00000000   -0.00000000    0.00000041
     atom   24 type  2   force =     0.00000000    0.00000000   -0.00000041
     atom   25 type  2   force =     0.00000000    0.00000032    0.00000000
     atom   26 type  2   force =     0.00000000   -0.00000001   -0.00000000
     atom   27 type  2   force =     0.00000000   -0.00000032    0.00000000
     atom   28 type  2   force =     0.00000000    0.00000001   -0.00000000
     atom   29 type  2   force =    -0.00000000   -0.00000001    0.00000000
     atom   30 type  2   force =    -0.00000000    0.00000041   -0.00000000
     atom   31 type  2   force =    -0.00000000    0.00000001    0.00000000
     atom   32 type  2   force =     0.00000000   -0.00000041    0.00000000
     atom   33 type  2   force =     0.00000032    0.00000000    0.00000000
     atom   34 type  2   force =    -0.00000001    0.00000000   -0.00000000
     atom   35 type  2   force =    -0.00000001   -0.00000000    0.00000000
     atom   36 type  2   force =     0.00000041   -0.00000000   -0.00000000
     atom   37 type  2   force =    -0.00000032    0.00000000    0.00000000
     atom   38 type  2   force =     0.00000001    0.00000000   -0.00000000
     atom   39 type  2   force =     0.00000001   -0.00000000    0.00000000
     atom   40 type  2   force =    -0.00000041    0.00000000    0.00000000
     The Hubbard contrib.    to forces
     atom    1 type  1   force =     0.00000000    0.00000000    0.00000000
     atom    2 type  1   force =     0.00000000    0.00000000    0.00000000
     atom    3 type  1   force =     0.00000000    0.00000000    0.00000000
     atom    4 type  1   force =     0.00000000    0.00000000    0.00000000
     atom    5 type  1   force =     0.00000000    0.00000000    0.00000000
     atom    6 type  1   force =     0.00000000    0.00000000    0.00000000
     atom    7 type  1   force =     0.00000000    0.00000000    0.00000000
     atom    8 type  1   force =     0.00000000    0.00000000    0.00000000
     atom    9 type  3   force =     0.00000000    0.00000000    0.00000000
     atom   10 type  3   force =     0.00000000    0.00000000    0.00000000
     atom   11 type  3   force =     0.00000000    0.00000000    0.00000000
     atom   12 type  3   force =     0.00000000    0.00000000    0.00000000
     atom   13 type  3   force =     0.00000000    0.00000000    0.00000000
     atom   14 type  3   force =     0.00000000    0.00000000    0.00000000
     atom   15 type  3   force =     0.00000000    0.00000000    0.00000000
     atom   16 type  3   force =     0.00000000    0.00000000    0.00000000
     atom   17 type  2   force =     0.00000000    0.00000000    0.00000000
     atom   18 type  2   force =     0.00000000    0.00000000    0.00000000
     atom   19 type  2   force =     0.00000000    0.00000000    0.00000000
     atom   20 type  2   force =     0.00000000    0.00000000    0.00000000
     atom   21 type  2   force =     0.00000000    0.00000000    0.00000000
     atom   22 type  2   force =     0.00000000    0.00000000    0.00000000
     atom   23 type  2   force =     0.00000000    0.00000000    0.00000000
     atom   24 type  2   force =     0.00000000    0.00000000    0.00000000
     atom   25 type  2   force =     0.00000000    0.00000000    0.00000000
     atom   26 type  2   force =     0.00000000    0.00000000    0.00000000
     atom   27 type  2   force =     0.00000000    0.00000000    0.00000000
     atom   28 type  2   force =     0.00000000    0.00000000    0.00000000
     atom   29 type  2   force =     0.00000000    0.00000000    0.00000000
     atom   30 type  2   force =     0.00000000    0.00000000    0.00000000
     atom   31 type  2   force =     0.00000000    0.00000000    0.00000000
     atom   32 type  2   force =     0.00000000    0.00000000    0.00000000
     atom   33 type  2   force =     0.00000000    0.00000000    0.00000000
     atom   34 type  2   force =     0.00000000    0.00000000    0.00000000
     atom   35 type  2   force =     0.00000000    0.00000000    0.00000000
     atom   36 type  2   force =     0.00000000    0.00000000    0.00000000
     atom   37 type  2   force =     0.00000000    0.00000000    0.00000000
     atom   38 type  2   force =     0.00000000    0.00000000    0.00000000
     atom   39 type  2   force =     0.00000000    0.00000000    0.00000000
     atom   40 type  2   force =     0.00000000    0.00000000    0.00000000
     The SCF correction term to forces
     atom    1 type  1   force =     0.00000022    0.00000022    0.00000022
     atom    2 type  1   force =     0.00000022    0.00000022   -0.00000022
     atom    3 type  1   force =     0.00000022   -0.00000022    0.00000022
     atom    4 type  1   force =     0.00000022   -0.00000022   -0.00000022
     atom    5 type  1   force =    -0.00000022    0.00000022    0.00000022
     atom    6 type  1   force =    -0.00000022    0.00000022   -0.00000022
     atom    7 type  1   force =    -0.00000022   -0.00000022    0.00000022
     atom    8 type  1   force =    -0.00000022   -0.00000022   -0.00000022
     atom    9 type  3   force =     0.00000000   -0.00000000   -0.00000000
     atom   10 type  3   force =     0.00000000   -0.00000000    0.00000000
     atom   11 type  3   force =     0.00000000    0.00000000    0.00000000
     atom   12 type  3   force =     0.00000000    0.00000000    0.00000000
     atom   13 type  3   force =     0.00000000    0.00000000    0.00000000
     atom   14 type  3   force =     0.00000000    0.00000000    0.00000000
     atom   15 type  3   force =     0.00000000    0.00000000   -0.00000000
     atom   16 type  3   force =     0.00000000    0.00000000    0.00000000
     atom   17 type  2   force =    -0.00000000   -0.00000000   -0.00001039
     atom   18 type  2   force =    -0.00000000   -0.00000000    0.00001039
     atom   19 type  2   force =    -0.00000000   -0.00000000    0.00000755
     atom   20 type  2   force =    -0.00000000   -0.00000000   -0.00000755
     atom   21 type  2   force =    -0.00000000    0.00000000    0.00000755
     atom   22 type  2   force =    -0.00000000    0.00000000   -0.00000755
     atom   23 type  2   force =    -0.00000000    0.00000000    0.00000210
     atom   24 type  2   force =    -0.00000000    0.00000000   -0.00000210
     atom   25 type  2   force =    -0.00000000   -0.00001039    0.00000000
     atom   26 type  2   force =    -0.00000000    0.00000755   -0.00000000
     atom   27 type  2   force =    -0.00000000    0.00001039    0.00000000
     atom   28 type  2   force =    -0.00000000   -0.00000755    0.00000000
     atom   29 type  2   force =    -0.00000000    0.00000755   -0.00000000
     atom   30 type  2   force =    -0.00000000    0.00000210    0.00000000
     atom   31 type  2   force =    -0.00000000   -0.00000755    0.00000000
     atom   32 type  2   force =    -0.00000000   -0.00000210    0.00000000
     atom   33 type  2   force =    -0.00001039   -0.00000000    0.00000000
     atom   34 type  2   force =     0.00000755   -0.00000000   -0.00000000
     atom   35 type  2   force =     0.00000755    0.00000000    0.00000000
     atom   36 type  2   force =     0.00000210    0.00000000    0.00000000
     atom   37 type  2   force =     0.00001039   -0.00000000    0.00000000
     atom   38 type  2   force =    -0.00000755   -0.00000000    0.00000000
     atom   39 type  2   force =    -0.00000755    0.00000000    0.00000000
     atom   40 type  2   force =    -0.00000210    0.00000000    0.00000000

     Total force =     0.000023     Total SCF correction =     0.000037
     SCF correction compared to forces is large: reduce conv_thr to get better values


     Computing stress (Cartesian axis) and pressure


     negative rho (up, down):  5.287E-02 0.000E+00
          total   stress  (Ry/bohr**3)                   (kbar)     P=      -96.80
  -0.00065805   0.00000000   0.00000000          -96.80        0.00        0.00
   0.00000000  -0.00065805   0.00000000            0.00      -96.80        0.00
   0.00000000   0.00000000  -0.00065805            0.00        0.00      -96.80

     kinetic stress (kbar)   3196.76      0.00      0.00
                                0.00   3196.76      0.00
                                0.00      0.00   3196.76

     local   stress (kbar)   -475.74     -0.00     -0.00
                               -0.00   -475.74      0.00
                               -0.00      0.00   -475.74

     nonloc. stress (kbar)   1199.88      0.00      0.00
                                0.00   1199.88      0.00
                                0.00      0.00   1199.88

     hartree stress (kbar)   1878.45      0.00      0.00
                                0.00   1878.45      0.00
                                0.00      0.00   1878.45

     exc-cor stress (kbar)  12003.88      0.00      0.00
                                0.00  12003.88      0.00
                                0.00      0.00  12003.88

     corecor stress (kbar) -13603.99     -0.00     -0.00
                               -0.00 -13603.99     -0.00
                               -0.00     -0.00 -13603.99

     ewald   stress (kbar)  -4296.03     -0.00      0.00
                               -0.00  -4296.03     -0.00
                                0.00     -0.00  -4296.03

     hubbard stress (kbar)      0.00      0.00      0.00
                                0.00      0.00      0.00
                                0.00      0.00      0.00

     DFT-D   stress (kbar)      0.00      0.00      0.00
                                0.00      0.00      0.00
                                0.00      0.00      0.00

     XDM     stress (kbar)      0.00      0.00      0.00
                                0.00      0.00      0.00
                                0.00      0.00      0.00

     dft-nl  stress (kbar)      0.00      0.00      0.00
                                0.00      0.00      0.00
                                0.00      0.00      0.00

     TS-vdW  stress (kbar)      0.00      0.00      0.00
                                0.00      0.00      0.00
                                0.00      0.00      0.00



     Writing output data file ../../out/aiida.save/

     init_run     :     96.48s CPU     99.12s WALL (       1 calls)
     electrons    :   2889.99s CPU   2950.44s WALL (       1 calls)
     forces       :     93.77s CPU     96.67s WALL (       1 calls)
     stress       :    156.70s CPU    164.13s WALL (       1 calls)

     Called by init_run:
     wfcinit      :     73.23s CPU     73.48s WALL (       1 calls)
     wfcinit:atom :      0.09s CPU      0.16s WALL (       4 calls)
     wfcinit:wfcr :     72.35s CPU     72.44s WALL (       4 calls)
     potinit      :      4.29s CPU      4.52s WALL (       1 calls)
     hinit0       :      1.62s CPU      1.67s WALL (       1 calls)

     Called by electrons:
     c_bands      :   2227.36s CPU   2232.34s WALL (      12 calls)
     sum_band     :    444.80s CPU    474.69s WALL (      12 calls)
     v_of_rho     :     20.21s CPU     22.35s WALL (      12 calls)
     v_h          :      1.29s CPU      1.41s WALL (      12 calls)
     v_xc         :     22.17s CPU     24.50s WALL (      14 calls)
     newd         :    189.02s CPU    214.53s WALL (      12 calls)
     PAW_pot      :     25.15s CPU     25.15s WALL (      12 calls)
     mix_rho      :      2.26s CPU      2.26s WALL (      12 calls)

     Called by c_bands:
     init_us_2    :      3.35s CPU      3.38s WALL (     108 calls)
     cegterg      :   2211.94s CPU   2216.89s WALL (      49 calls)

     Called by sum_band:
     sum_band:wei :      0.01s CPU      0.01s WALL (      12 calls)
     sum_band:loo :    159.81s CPU    159.92s WALL (      12 calls)
     sum_band:buf :      0.72s CPU      0.72s WALL (      48 calls)
     sum_band:ini :      1.50s CPU      1.50s WALL (      48 calls)
     sum_band:cal :    132.46s CPU    132.53s WALL (      48 calls)
     sum_band:bec :      0.15s CPU      0.15s WALL (      48 calls)
     addusdens    :    282.40s CPU    312.13s WALL (      12 calls)
     addusd:skk   :      3.07s CPU      5.10s WALL (      36 calls)
     addusd:dgemm :    193.81s CPU    216.25s WALL (      36 calls)
     addusd:qvan2 :     79.96s CPU     80.05s WALL (      36 calls)

     Called by *egterg:
     cdiaghg      :     43.83s CPU     43.84s WALL (     273 calls)
     cegterg:over :    286.93s CPU    287.01s WALL (     228 calls)
     cegterg:upda :    174.59s CPU    175.30s WALL (     228 calls)
     cegterg:last :    464.24s CPU    464.40s WALL (      98 calls)
     h_psi        :    813.05s CPU    814.53s WALL (     281 calls)
     s_psi        :    357.60s CPU    357.68s WALL (     281 calls)
     g_psi        :      2.76s CPU      2.76s WALL (     228 calls)

     Called by h_psi:
     h_psi:calbec :    334.43s CPU    334.52s WALL (     281 calls)
     vloc_psi     :    117.71s CPU    117.93s WALL (     281 calls)
     add_vuspsi   :    359.53s CPU    359.64s WALL (     281 calls)

     General routines
     calbec       :    521.53s CPU    521.70s WALL (     349 calls)
     fft          :     13.32s CPU     13.33s WALL (     180 calls)
     ffts         :      0.07s CPU      0.07s WALL (      24 calls)
     fftw         :    116.93s CPU    117.16s WALL (   61040 calls)
     interpolate  :      1.12s CPU      1.24s WALL (      12 calls)

     Parallel routines

     PAW routines
     PAW_pot      :     25.15s CPU     25.15s WALL (      12 calls)
     PAW_symme    :      0.06s CPU      0.06s WALL (      24 calls)

     PWSCF        :  53m57.32s CPU  55m10.98s WALL


   This run was terminated on:  15: 0: 3   1Apr2024            

=------------------------------------------------------------------------------=
   JOB DONE.
=------------------------------------------------------------------------------=
