 --invoking executable--
/opt/cfour/2.1/bin/xjoda


   *************************************************************************
         <<<     CCCCCC     CCCCCC   |||     CCCCCC     CCCCCC   >>>
       <<<      CCC        CCC       |||    CCC        CCC         >>>
      <<<      CCC        CCC        |||   CCC        CCC            >>>
    <<<        CCC        CCC        |||   CCC        CCC              >>>
      <<<      CCC        CCC        |||   CCC        CCC            >>>
       <<<      CCC        CCC       |||    CCC        CCC         >>>
         <<<     CCCCCC     CCCCCC   |||     CCCCCC     CCCCCC   >>>
   *************************************************************************

     ****************************************************************
     * CFOUR Coupled-Cluster techniques for Computational Chemistry *
     ****************************************************************


   Department of Chemistry                Institut fuer Physikalische Chemie
   University of Florida                  Universitaet Mainz
   Gainesville, FL 32611, USA             D-55099 Mainz, Germany

   Department of Chemistry                Fakultaet fuer Chemie und Biowiss.
   Johns Hopkins University               Karlsruher Institut fuer Technologie
   Baltimore, MD 21218, USA               D-76131 Karlsruhe, Germany

   Department of Chemistry                Department of Physical Chemistry
   Southern Methodist University          Eotvos Lorand University
   Dallas, TX 75275, USA                  H-1053 Budapest, Hungary


                       Version 2.1

                     node006                                           
                     Fri 13 Jun 2025 12:33:43 PM PDT                   
                     integer*8 version is running

********************************************************************************
*                          Input from ZMAT file                                *
********************************************************************************
SPE on FeCO5                                                                    
Fe                                                                              
C 1 rFeCAx                                                                      
C 1 rFeCEq 2 a90                                                                
C 1 rFeCEq 3 a120 2 dn90                                                        
C 1 rFeCEq 3 a120 2 d90                                                         
C 1 rFeCAx 3 a90 4 dn90                                                         
O 1 rFeOAx 3 a90 4 d90                                                          
O 1 rFeOAx 3 a90 4 dn90                                                         
O 1 rFeOEq 2 a90 3 d0                                                           
O 1 rFeOEq 2 a90 4 d0                                                           
O 1 rFeOEq 2 a90 5 d0                                                           
                                                                                
rFeCAx =    1.829565855794663                                                   
rFeCEq =    1.830427937707052                                                   
rFeOAx =    2.983800083699976                                                   
rFeOEq =    2.987529988574558                                                   
a90    =   90.00000                                                             
a120   =  120.00000                                                             
dn90   =  -90.00000                                                             
d0     =    0.00000                                                             
d90    =   90.00000                                                             
                                                                                
*ACES2(CALC = CC3                                                               
     EXCITE = EOMEE                                                             
      BASIS = SPECIAL                                                           
     DROPMO = 1>15                                                              
  RELATIVTY = X2C1E                                                             
 OCCUPATION = 23-11-11-3                                                        
LOCK_ORBOCC = ON                                                                
 ESTATE_SYM = 1/0/0/0                                                           
   SCF_CONV = 10                                                                
    CC_CONV = 8                                                                 
 LINEQ_CONV = 8                                                                 
   SCF_MAXCYC = 500                                                             
    CC_MAXCYC = 500                                                             
 LINEQ_MAXCYC = 500                                                             
       MEMORY = 32                                                              
     MEM_UNIT = GB)                                                             
                                                                                
Fe:cc-pVDZ                                                                      
C:cc-pVDZ                                                                       
C:cc-pVDZ                                                                       
C:cc-pVDZ                                                                       
C:cc-pVDZ                                                                       
C:cc-pVDZ                                                                       
O:cc-pVDZ                                                                       
O:cc-pVDZ                                                                       
O:cc-pVDZ                                                                       
O:cc-pVDZ                                                                       
O:cc-pVDZ                                                                       
                                                                                
********************************************************************************
    -------------------------------------------------------------------
                    CFOUR Control Parameters 
    -------------------------------------------------------------------
        External           Internal           Value            Units
          Name               Name
    -------------------------------------------------------------------
       ABCDTYPE             IABCDT         STANDARD    [  0]    ***   
       ANHARMONIC           IANHAR         OFF         [  0]    ***   
       ANH_ALGORIT          IANALG         STANDARD    [  0]    ***   
       ANH_DERIVAT          IANDER         SECOND      [  1]    ***   
       ANH_MODE             ANHMOD         VIBRATION   [  0]    ***   
       ANH_STEPSIZ          ICUBST             50000          x 10-6  
       ANH_SYMMETR          IANHSM         ABELIAN     [  0]    ***   
       AO_LADDERS           IAOLAD         SINGLEPASS  [  1]    ***   
       AV_SCF               IAVSCF         OFF         [  0]    ***   
       BASIS                IBASIS         SPECIAL     [  0]    ***   
       BOTHVECTORS          BOTHVC         OFF         [  0]    ***   
       BOX_POTENT           IPIAB          OFF         [  0]    ***   
       BREIT                IBREIT         OFF         [  0]    ***   
       BRUCK_CONV           IBRTOL          10D-  4             ***   
       BRUECKNER            IBRKNR         OFF         [  0]    ***   
       BUFFERSIZE           IBUFFS              4096            ***   
       CACHE_RECS           ICHREC             10               ***   
       CALCLEVEL            ICLLVL         CC3         [ 32]    ***   
       CCORBOPT             ICCORB         OFF         [  0]  x 0.01  
       CC_CONV              ICCCNV          10D-  8             ***   
       CC_EXPORDER          ICCEOR              5               ***   
       CC_EXTRAPOL          ICCEXT         DIIS        [  1]    ***   
       CC_GUESS             ICCGES         MP2         [  0]    ***   
       CC_MAXCYC            ICCCYC            500              cycles 
       CC_PROGRAM           ICCPRO         ECC         [  1]    ***   
       CHARGE               ICHRGE              0               ***   
       CHOLESKY             ICHOLE         OFF         [  0]    ***   
       CIS_CONV             ICISTL              5               ***   
       COMM_SIZE            IPSIZE            ***               ***   
       CONSTANT             ICONST         OLD         [  1]    ***   
       CONTINUUM            ICONTU         NONE        [  0]    ***   
       CONTRACTION          ICNTYP         GENERAL     [  1]    ***   
       COORDINATES          ICOORD         INTERNAL    [  0]    ***   
       CPHF_CONVER          ICPHFT          10D- 16             ***   
       CPHF_MAXCYC          ICPHFC             64              cycles 
       CUBIC                ICUBIC         OFF         [  0]    ***   
       CURVILINEAR          ICURVY         OFF         [  0]    ***   
       DBOC                 IDBOC          OFF         [  0]    ***   
       DCT                  IDCT           OFF         [  0]    ***   
       DERIV_LEV            IDRLVL         ZERO        [  0]    ***   
       DEVMEM_SIZE          IDVMEM         *********           MByte  
       DIAG_MRCC            IEOMST          10D-  0             ***   
       DIFF_TYPE            IDIFTY         RELAXED     [  0]    ***   
       DIRECT               IDIRCT         OFF         [  0]    ***   
       DROPMO               IDRPMO   1,  2,  3,  4,  5,  6,  7,  8,
                                     9, 10, 11, 12, 13, 14, 15,
       ECP                  IECP           OFF         [  0]    ***   
       EIGENVECTOR          IVEC                1               ***   
       EL_ANHARM            IELANH         OFF         [  0]    ***   
       EOMFOLLOW            IEOMSR         ENERGY      [  0]    ***   
       EOMIP                IEOMIP         OFF         [  0]    ***   
       EOMLEVEL             HBARFM         SAME        [  0]    ***   
       EOM_MRCC             IMRCCE         NEW         [  1]    ***   
       EOM_NONIT            EOMNON         OFF         [  0]    ***   
       EOM_NSING            IEOMSI          10D-  0             ***   
       EOM_NSTATES          IMRCCD         DAVIDSON    [  0]    ***   
       EOM_NTRIP            IEOMTR          10D-  0             ***   
       EOM_ORDER            IEXORD         ENERGY      [  0]    ***   
       EOM_PROPSTA          IEOMST              0               ***   
       ESTATE_CONV          IEXTOL          10D-  5             ***   
       ESTATE_DIAG          IEXDIG         ITERATIVE   [  0]    ***   
       ESTATE_LOCK          IESLOC         ON          [  1]    ***   
       ESTATE_MAXC          IEXMXC             40               ***   
       ESTATE_PROP          IEXPRP         OFF         [  0]    ***   
       ESTATE_SYM           IEXSYM   1,  0,  0,  0,
       EVAL_HESS            IRECAL              0            # of cyc.
       EXCITATION           IEXCIT              0               ***   
       EXCITE               IEXCIT         EOMEE       [  3]    ***   
       EXTERN_POT           IEXPOT         OFF         [  0]    ***   
       FCGRADNEW            IFCGNW         OFF         [  0]    ***   
       FC_FIELD             IFINFC              0             x 10-6  
       FD_CALTYPE           IFDCAL         GRADONLY    [  0]    ***   
       FD_PROJECT           IFDPRJ         OFF         [  1]    ***   
       FD_STEPSIZE          IDISFD              0            10-4 bohr
       FD_USEGROUP          IFDGRP         FULL        [  0]    ***   
       FILE_RECSIZ          IFLREC              4096           words  
       FINITE_PERT          IFIPER              0             x 10-6  
       FIXGEOM              IFIXGM         OFF         [  0]    ***   
       FOCK                 IFOCK          AO          [  1]    ***   
       FREQ_ALGORI          IVIALG         STANDARD    [  0]    ***   
       FROZEN_CORE          IFROCO         OFF         [  0]    ***   
       GAMMA_ABCD           IGABCD         STORE       [  0]    ***   
       GAMMA_ABCI           IGABCI         STORE       [  0]    ***   
       GENBAS_1             IGNBS1              0               ***   
       GENBAS_2             IGNBS2              0               ***   
       GENBAS_3             IGNBS3              0               ***   
       GENBAS_4             IGNBS4              0               ***   
       GEO_CONV             ICONTL              5              H/bohr 
       GEO_MAXCYC           IOPTCY             50               ***   
       GEO_MAXSTEP          IMXSTP            300            millibohr
       GEO_METHOD           INR            SINGLE_POINT[  5]    ***   
       GIAO                 IGIAO          OFF         [  1]    ***   
       GIMIC                IGIMIC         OFF         [  0]    ***   
       GRID                 IGRID          OFF         [  0]    ***   
       GRID_ALGO            IGALGO         SERIAL      [  0]    ***   
       GUESS                IGUESS         MOREAD      [  0]    ***   
       HBAR                 IHBAR          ON          [  1]    ***   
       HESS_TYPE            IHESTP         SCF         [  0]    ***   
       HF2_FILE             IHF2Fl         USE         [  1]    ***   
       HFSTABILITY          ISTABL         OFF         [  0]    ***   
       INCORE               INCORE         OFF         [  0]    ***   
       INPUT_MRCC           IMRCC          ON          [  1]    ***   
       INTEGRALS            INTTYP         VMOL        [  1]    ***   
       JODA_PRINT           IJPRNT              0               ***   
       KEYWORD_OUT          IDMPKW         NO          [  0]    ***   
       LINDEP_TOL           ILINDP              8               ***   
       LINEQ_CONV           IZTACN          10D-  8           cycles  
       LINEQ_EXPOR          ILMAXD              5               ***   
       LINEQ_MAXCY          ILMAXC            500               ***   
       LINEQ_TYPE           ILTYPE         DIIS        [  1]    ***   
       LOCK_ORBOCC          ILOCOC         ON          [  1]    ***   
       MEMORY_SIZE          IMEMSZ         *********           words  
       MEM_UNIT             IMEMU          GB          [  3]    ***   
       MRCC                 IMRCCC         OFF         [  0]    ***   
       MULTIPLICTY          IMULTP              1               ***   
       NACOUPLING           IVCOUP         OFF         [  0]    ***   
       NEGEVAL              IDIE           ABORT       [  0]    ***   
       NEWNORM              INEWNO         OFF         [  0]    ***   
       NON-HF               INONHF         OFF         [  0]    ***   
       NTOP_TAMP            ITOPT2             15               ***   
       NUC_MODEL            INUCMO         POINT       [  0]    ***   
       OCCUPATION           IOCCU   23, 11, 11,  3,
       OPEN-SHELL           IOPEN          SPIN-ORBITAL[  0]    ***   
       OPTVIB               IOPTVB         OFF         [  0]    ***   
       ORBITALS             IORBTP         STANDARD    [  0]    ***   
       PARALLEL             IPARAL         ON          [  1]    ***   
       PARA_INT             IPINTS         ON          [  1]    ***   
       PARA_PRINT           IPPRIN              0               ***   
       PERT_ORB             IPTORB         STANDARD    [  0]    ***   
       POINTS               IGRDFD              0               ***   
       PRINT                IPRNT               0               ***   
       PROPS                IPROPS         OFF         [  0]    ***   
       PROP_INTEGR          IINTYP         INTERNAL    [  0]    ***   
       PSI                  IPSI           OFF         [  0]    ***   
       QC_ALG               IQCALG         FLM         [  0]    ***   
       QC_LINALG            IQCLIN         TRIDIAG     [  2]    ***   
       QC_MAXCYC            IQCMAX          10D-100           cycles  
       QC_MAXSCFCY          IQCMSC          10D- 15           cycles  
       QC_RTRUST            IQCRTR          10D-  0           x 10-3  
       QC_SKIPSCF           IQCSKI         OFF         [  0]    ***   
       QC_START             IQCSTA          10D-  1             ***   
       QRHFGUESS            IQGUES         OFF         [  0]    ***   
       QUARTIC              IQUART         OFF         [  0]    ***   
       RAMAN_INT            IRAMIN         OFF         [  0]    ***   
       RAMAN_ORB            IRAMRE         UNRELAXED   [  0]    ***   
       RDO                  IRDOFM         OFF         [  0]    ***   
       REDUCE_REPR          REDREP         Ir          [  0]    ***   
       REFERENCE            IREFNC         RHF         [  0]    ***   
       RELATIVIST           IRELAT         X2C1E       [ 11]    ***   
       RELAX_DENS           IRDENS         OFF         [  0]    ***   
       RESET_FLAGS          IRESET         OFF         [  0]    ***   
       RESTART_CC           ICCRES         OFF         [  0]    ***   
       ROT_EVEC             ROTVEC              0               ***   
       SAVE_INTS            ISVINT         OFF         [  0]    ***   
       SCALE_ON             ISTCRT              0               ***   
       SCF_CONV             ISCFCV          10D- 10             ***   
       SCF_DAMPING          IDAMP               0             x 10-3  
       SCF_EXPORDE          IRPPOR              6               ***   
       SCF_EXPSTAR          IRPPLS              8               ***   
       SCF_EXTRAPO          IRPP           ON          [  1]    ***   
       SCF_MAXCYC           ISCFCY            500              cycles 
       SCF_NOSTOP           ISCFST         OFF         [  0]    ***   
       SCF_PRINT            ISCFPR              0               ***   
       SCF_PROG             ISCFPR         SCF         [  0]    ***   
       SD_FIELD             IFINSD              0             x 10-6  
       SOPERT               IPERSO         OFF         [  0]    ***   
       SPHERICAL            IDFGHI         ON          [  1]    ***   
       SPINORBIT            ISOCAL         OFF         [  0]    ***   
       SPINROTATIO          ISRCON         OFF         [  0]    ***   
       SPIN_FLIP            ISPFLP         OFF         [  0]    ***   
       SPIN_ORBIT           ISPORB         OFF         [  0]    ***   
       SPIN_SCAL            ISCSMP         OFF         [  0]    ***   
       STEEPSCALE           ISTPSC              1000          x 10-3  
       SUBGROUP             ISUBGP         DEFAULT     [  0]    ***   
       SUBGRPAXIS           ISBXYZ         X           [  0]    ***   
       SYMMETRY             ISYM           ON          [  0]    ***   
       SYM_CHECK            ISYMCK         OVERRIDE    [  1]    ***   
       T3_EXTRAPOL          IT3EXT         OFF         [  0]    ***   
       T4_EXTRAPOL          IT4EXP         OFF         [  0]    ***   
       TAMP_SUM             IEVERY              5               ***   
       TESTSUITE            ITESTS         OFF         [  0]    ***   
       THERMOCH             ITHERM         OFF         [  0]    ***   
       TOL_CHOLESK          ITOLCH          10D-  4             ***   
       TRANGRAD             IRESRM         OFF         [  0]    ***   
       TRANS_INV            ITRAIN         USE         [  0]    ***   
       TREAT_PERT           ITREAT         SIMULTANEOUS[  0]    ***   
       TRIP_ALGORI          ITRALG         NORMAL      [  0]    ***   
       UIJ_THRESHO          IUIJTH              1               ***   
       UNITS                IUNITS         ANGSTROM    [  0]    ***   
       UNOS                 IUNOS          OFF         [  0]    ***   
       UPDATE_HESS          IHUPDT         ON          [  1]    ***   
       VIBPHASE             ISETPH         STANDARD    [  0]    ***   
       VIBRATION            IVIB           NO          [  0]    ***   
       VIB_ALGORIT          IGEALG         STANDARD    [  0]    ***   
       VNATORB              IVNORB         OFF         [  0]    ***   
       VTRAN                IVTRAN         FULL/PARTIAL[  0]    ***   
       XFIELD               IXEFLD              0             x 10-6  
       XFORM_TOL            IXFTOL          10D- 11             ***   
       YFIELD               IYEFLD              0             x 10-6  
       ZFIELD               IZEFLD              0             x 10-6  
       ZSCALE_EXP           IZEXPS         OFF         [  0]    ***   
    -------------------------------------------------------------------
  11 entries found in Z-matrix 
   Job Title : SPE on FeCO5                                                                    
   There are  9 unique internal coordinates.
   Of these,  0 will be optimized.
   User supplied Z-matrix: 
--------------------------------------------------------------------------------
       SYMBOL    BOND      LENGTH    ANGLE     ANGLE     DIHED     ANGLE
                  TO      (ANGST)    WRT      (DEG)      WRT      (DEG)
--------------------------------------------------------------------------------
        Fe   
        C          1         rFeCA
        C          1         rFeCE      2        a90  
        C          1         rFeCE      3        a120       2        dn90 
        C          1         rFeCE      3        a120       2        d90  
        C          1         rFeCA      3        a90        4        dn90 
        O          1         rFeOA      3        a90        4        d90  
        O          1         rFeOA      3        a90        4        dn90 
        O          1         rFeOE      2        a90        3        d0   
        O          1         rFeOE      2        a90        4        d0   
        O          1         rFeOE      2        a90        5        d0   
                  *Initial values for internal coordinates* 
                      Name             Value
                        rFeCA           1.8295658558
                        rFeCE           1.8304279377
                        a90            90.0000000000
                        a120          120.0000000000
                        dn90          -90.0000000000
                        d90            90.0000000000
                        rFeOA           2.9838000837
                        rFeOE           2.9875299886
                        d0              0.0000000000
--------------------------------------------------------------------------------
  filter applied 
  filter applied 
   Rotational constants (in cm-1): 
          0.0263568807             0.0263568807             0.0307118455
   Rotational constants (in MHz): 
        790.1595147912           790.1595147912           920.7180943059
********************************************************************************
   The full molecular point group is D3h .
   The largest Abelian subgroup of the full molecular point group is C2v .
   The computational point group is C2v .
********************************************************************************
--------------------------------------------------------------------------------
   Analysis of internal coordinates specified by Z-matrix 
--------------------------------------------------------------------------------
   *The nuclear repulsion energy is  794.324169968254409 a.u.
   *There are   4 degrees of freedom within the tot. symm. molecular subspace.
   *Z-matrix requests optimization of   0 coordinates.
   *The optimization is constrained.
   *The following   4 parameters can have non-zero 
    derivatives within the totally symmetric subspace:
             rFeCE[ 4]  rFeCA[ 1]  rFeOE[25]  rFeOA[13]
   *The following   0 parameters are to be optimized:

   *The following coordinates must be varied in an  unconstrained optimization.
             rFeCE[ 4]  rFeCA[ 1]  rFeOE[25]  rFeOA[13]
--------------------------------------------------------------------------------


 ----------------------------------------------------------------
         Coordinates used in calculation (QCOMP) 
 ----------------------------------------------------------------
 Z-matrix   Atomic            Coordinates (in bohr)
  Symbol    Number           X              Y              Z
 ----------------------------------------------------------------
     FE       26         0.00000000     0.00000000     0.00000000
     C         6         0.00000000    -3.45737912     0.00000000
     C         6        -2.99558899     0.00000000    -1.72950411
     C         6        -0.00000000     0.00000000     3.45900822
     C         6         2.99558899    -0.00000000    -1.72950411
     C         6        -0.00000000     3.45737912     0.00000000
     O         8        -0.00000000    -5.63856615     0.00000000
     O         8        -0.00000000     5.63856615     0.00000000
     O         8        -4.88924571    -0.00000000    -2.82280733
     O         8        -0.00000000    -0.00000000     5.64561465
     O         8         4.88924571    -0.00000000    -2.82280733
 ----------------------------------------------------------------

   Interatomic distance matrix (Angstroms) 

                 FE            C             C             C             C    
                [ 1]        [ 2]        [ 3]        [ 4]        [ 5]
  FE   [ 1]     0.00000
  C    [ 2]     1.82957     0.00000
  C    [ 3]     1.83043     2.58801     0.00000
  C    [ 4]     1.83043     2.58801     3.17039     0.00000
  C    [ 5]     1.83043     2.58801     3.17039     3.17039     0.00000
  C    [ 6]     1.82957     3.65913     2.58801     2.58801     2.58801
  O    [ 7]     2.98380     1.15423     3.50050     3.50050     3.50050
  O    [ 8]     2.98380     4.81337     3.50050     3.50050     3.50050
  O    [ 9]     2.98753     3.50323     1.15710     4.21239     4.21239
  O    [10]     2.98753     3.50323     4.21239     1.15710     4.21239
  O    [11]     2.98753     3.50323     4.21239     4.21239     1.15710

                 C             O             O             O             O    
                [ 6]        [ 7]        [ 8]        [ 9]        [10]
  C    [ 6]     0.00000
  O    [ 7]     4.81337     0.00000
  O    [ 8]     1.15423     5.96760     0.00000
  O    [ 9]     3.50323     4.22237     4.22237     0.00000
  O    [10]     3.50323     4.22237     4.22237     5.17455     0.00000
  O    [11]     3.50323     4.22237     4.22237     5.17455     5.17455

                 O    
                [11]
  O    [11]     0.00000
 rotcon2
   Rotational constants (in cm-1): 
          0.0263568807             0.0307118455             0.0263568807
   Rotational constants (in MHz): 
        790.1595147912           920.7180943059           790.1595147912
  ECPDATA file not present.   Using default ECPDATA. 
  There are  183 basis functions.
 @GEOPT-W, Archive file not created for single-point calculation.
 @CHECKOUT-I, Total execution time (CPU/WALL):        2.43/       0.56 seconds.
--executable xjoda finished with status     0 in        0.60 seconds (walltime).
 --invoking executable--
/opt/cfour/2.1/bin/xvmol
 SERIAL VERSION OF MOLECULE STARTED
********************************************************************************
                    INPUT FROM MOL FILE
********************************************************************************
INTGRL        1    0    1    0    0    0    0    0    0                         
         *** CFOUR Program System (Release V0.1) ***                            
SPE on FeCO5                                                                    
    7    2 X  Y       0.10E-08              0    0                              
   9999.00      3.00                                                            
         26.00000000    1    4    1    1    1    1                              
FE#1   0.000000000000000   0.000000000000000   0.000000000000000                
   20    6                                                                      
   4316265.0000000000        8.0488029999999998E-006  -4.1559539999999997E-006  
   646342.40000000002        6.2583059999999998E-005  -3.2314010000000003E-005  
   147089.70000000001        3.2902389999999999E-004  -1.6995250000000000E-004  
   41661.519999999997        1.3873550000000001E-003  -7.1713690000000004E-004  
   13590.770000000000        5.0232560000000002E-003  -2.6036250000000000E-003  
   4905.7500000000000        1.6101399999999998E-002  -8.3991090000000001E-003  
   1912.7460000000001        4.5900339999999998E-002  -2.4341089999999999E-002  
   792.60429999999997       0.11361540000000001       -6.2519480000000002E-002  
   344.80650000000003       0.22838690000000000      -0.13659289999999999       
   155.89990000000000       0.32211590000000001      -0.23127070000000000       
   72.230909999999994       0.23836610000000000      -0.23837340000000001       
   32.725059999999999        7.4046669999999995E-002   3.1238370000000001E-002  
   15.667619999999999        9.2141970000000004E-002  0.50868179999999996      -
   7.5034830000000001        9.3397900000000006E-002  0.49876949999999998      -
   3.3122229999999999        1.5739650000000001E-002   9.0335520000000002E-002  
   1.5584709999999999       -4.1866819999999998E-004  -6.0053370000000003E-003  
  0.68391400000000002        5.3763179999999999E-005   2.3124539999999999E-004  
  0.14675700000000000       -3.8166539999999997E-005  -5.6436799999999999E-004  
   7.0583000000000007E-002   4.3196030000000000E-005   4.9922599999999997E-004  
   3.1448999999999998E-002  -3.4010190000000000E-006  -1.0152930000000000E-004  
   16    5                                                                      
   17745.689999999999        4.1000000000000000E-005  -1.5000000000000000E-005  
   4200.7209999999995        3.6900000000000002E-004  -1.2999999999999999E-004  
   1364.4290000000001        2.1289999999999998E-003  -7.5100000000000004E-004  
   522.08060000000000        9.3690000000000006E-003  -3.3289999999999999E-003  
   221.45949999999999        3.3097000000000001E-002  -1.1912000000000001E-002  
   100.90960000000000        9.4431000000000001E-002  -3.4932999999999999E-002  
   48.401150000000001       0.20807700000000001       -7.9989000000000005E-002  
   23.985360000000000       0.33233299999999999      -0.13463600000000001       
   12.182499999999999       0.33298699999999998      -0.13859800000000000       
   6.2422979999999999       0.15684300000000001        3.0277999999999999E-002  
   3.1109439999999999        2.1548999999999999E-002  0.33321600000000001      -
   1.5099579999999999       -2.0950000000000001E-003  0.45615299999999998      -
  0.71084499999999995       -1.7390000000000001E-003  0.28505100000000000      -
  0.27318999999999999       -2.9999999999999997E-004   4.6143999999999998E-002  
  0.10423300000000001        2.9000000000000000E-005  -3.2490000000000002E-003  
   3.8290999999999999E-002  -1.1000000000000000E-005   1.3569999999999999E-003  
    8    3                                                                      
   113.34399999999999        3.5300000000000002E-003  -3.8899999999999998E-003  
   33.641399999999997        2.5784000000000001E-002  -2.8441999999999999E-002  
   12.331000000000000        9.9118999999999999E-002 -0.11242900000000000       
   4.9947800000000004       0.23907300000000001      -0.27425699999999997       
   2.0728000000000000       0.35719899999999999      -0.31554599999999999       
  0.83075299999999996       0.36218800000000001        5.7109000000000000E-002  
  0.30917800000000001       0.23646100000000000       0.56360399999999999       
  0.10013000000000000        6.0117999999999998E-002  0.38463700000000001       
    2    1                                                                      
   3.2242999999999999       0.42224899999999999                                 
  0.77580000000000005       0.77146800000000004                                 
          6.00000000    1    3    1    1    1                                   
C #2   0.000000000000000  -3.457379119003190   0.000000000000000                
    9    3                                                                      
   6665.0000000000000        6.9200000000000002E-004  -1.4600000000000000E-004  
   1000.0000000000000        5.3290000000000004E-003  -1.1540000000000001E-003  
   228.00000000000000        2.7077000000000000E-002  -5.7250000000000001E-003  
   64.709999999999994       0.10171800000000000       -2.3311999999999999E-002  
   21.059999999999999       0.27473999999999998       -6.3954999999999998E-002  
   7.4950000000000001       0.44856400000000002      -0.14998100000000000       
   2.7970000000000002       0.28507399999999999      -0.12726199999999999       
  0.52149999999999996        1.5204000000000001E-002  0.54452900000000004       
  0.15959999999999999       -3.1909999999999998E-003  0.58049600000000001       
    4    2                                                                      
   9.4390000000000001        3.8108999999999997E-002   0.0000000000000000       
   2.0019999999999998       0.20948000000000000        0.0000000000000000       
  0.54559999999999997       0.50855700000000004        0.0000000000000000       
  0.15170000000000000       0.46884199999999998        1.0000000000000000       
    1    1                                                                      
  0.55000000000000004        1.0000000000000000                                 
          6.00000000    1    3    1    1    1                                   
C #3  -2.995588988735656   0.000000000000000  -1.729504109028010                
    9    3                                                                      
   6665.0000000000000        6.9200000000000002E-004  -1.4600000000000000E-004  
   1000.0000000000000        5.3290000000000004E-003  -1.1540000000000001E-003  
   228.00000000000000        2.7077000000000000E-002  -5.7250000000000001E-003  
   64.709999999999994       0.10171800000000000       -2.3311999999999999E-002  
   21.059999999999999       0.27473999999999998       -6.3954999999999998E-002  
   7.4950000000000001       0.44856400000000002      -0.14998100000000000       
   2.7970000000000002       0.28507399999999999      -0.12726199999999999       
  0.52149999999999996        1.5204000000000001E-002  0.54452900000000004       
  0.15959999999999999       -3.1909999999999998E-003  0.58049600000000001       
    4    2                                                                      
   9.4390000000000001        3.8108999999999997E-002   0.0000000000000000       
   2.0019999999999998       0.20948000000000000        0.0000000000000000       
  0.54559999999999997       0.50855700000000004        0.0000000000000000       
  0.15170000000000000       0.46884199999999998        1.0000000000000000       
    1    1                                                                      
  0.55000000000000004        1.0000000000000000                                 
          6.00000000    1    3    1    1    1                                   
C #4  -0.000000000000001   0.000000000000000   3.459008218056020                
    9    3                                                                      
   6665.0000000000000        6.9200000000000002E-004  -1.4600000000000000E-004  
   1000.0000000000000        5.3290000000000004E-003  -1.1540000000000001E-003  
   228.00000000000000        2.7077000000000000E-002  -5.7250000000000001E-003  
   64.709999999999994       0.10171800000000000       -2.3311999999999999E-002  
   21.059999999999999       0.27473999999999998       -6.3954999999999998E-002  
   7.4950000000000001       0.44856400000000002      -0.14998100000000000       
   2.7970000000000002       0.28507399999999999      -0.12726199999999999       
  0.52149999999999996        1.5204000000000001E-002  0.54452900000000004       
  0.15959999999999999       -3.1909999999999998E-003  0.58049600000000001       
    4    2                                                                      
   9.4390000000000001        3.8108999999999997E-002   0.0000000000000000       
   2.0019999999999998       0.20948000000000000        0.0000000000000000       
  0.54559999999999997       0.50855700000000004        0.0000000000000000       
  0.15170000000000000       0.46884199999999998        1.0000000000000000       
    1    1                                                                      
  0.55000000000000004        1.0000000000000000                                 
          8.00000000    1    3    1    1    1                                   
O #5  -0.000000000000000  -5.638566150538215   0.000000000000000                
    9    3                                                                      
   11720.000000000000        7.1000000000000002E-004  -1.6000000000000001E-004  
   1759.0000000000000        5.4700000000000000E-003  -1.2630000000000000E-003  
   400.80000000000001        2.7837000000000001E-002  -6.2670000000000000E-003  
   113.70000000000000       0.10480000000000000       -2.5715999999999999E-002  
   37.030000000000001       0.28306199999999998       -7.0924000000000001E-002  
   13.270000000000000       0.44871899999999998      -0.16541100000000000       
   5.0250000000000004       0.27095200000000003      -0.11695500000000000       
   1.0129999999999999        1.5458000000000000E-002  0.55736799999999997       
  0.30230000000000001       -2.5850000000000001E-003  0.57275900000000002       
    4    2                                                                      
   17.699999999999999        4.3018000000000001E-002   0.0000000000000000       
   3.8540000000000001       0.22891300000000001        0.0000000000000000       
   1.0460000000000000       0.50872799999999996        0.0000000000000000       
  0.27529999999999999       0.46053100000000002        1.0000000000000000       
    1    1                                                                      
   1.1850000000000001        1.0000000000000000                                 
          8.00000000    1    3    1    1    1                                   
O #6  -4.889245707483187  -0.000000000000000  -2.822807325349641                
    9    3                                                                      
   11720.000000000000        7.1000000000000002E-004  -1.6000000000000001E-004  
   1759.0000000000000        5.4700000000000000E-003  -1.2630000000000000E-003  
   400.80000000000001        2.7837000000000001E-002  -6.2670000000000000E-003  
   113.70000000000000       0.10480000000000000       -2.5715999999999999E-002  
   37.030000000000001       0.28306199999999998       -7.0924000000000001E-002  
   13.270000000000000       0.44871899999999998      -0.16541100000000000       
   5.0250000000000004       0.27095200000000003      -0.11695500000000000       
   1.0129999999999999        1.5458000000000000E-002  0.55736799999999997       
  0.30230000000000001       -2.5850000000000001E-003  0.57275900000000002       
    4    2                                                                      
   17.699999999999999        4.3018000000000001E-002   0.0000000000000000       
   3.8540000000000001       0.22891300000000001        0.0000000000000000       
   1.0460000000000000       0.50872799999999996        0.0000000000000000       
  0.27529999999999999       0.46053100000000002        1.0000000000000000       

Running with 32 threads/proc

    1    1                                                                      
   1.1850000000000001        1.0000000000000000                                 
          8.00000000    1    3    1    1    1                                   
O #7  -0.000000000000000  -0.000000000000000   5.645614650699281                
    9    3                                                                      
   11720.000000000000        7.1000000000000002E-004  -1.6000000000000001E-004  
   1759.0000000000000        5.4700000000000000E-003  -1.2630000000000000E-003  
   400.80000000000001        2.7837000000000001E-002  -6.2670000000000000E-003  
   113.70000000000000       0.10480000000000000       -2.5715999999999999E-002  
   37.030000000000001       0.28306199999999998       -7.0924000000000001E-002  
   13.270000000000000       0.44871899999999998      -0.16541100000000000       
   5.0250000000000004       0.27095200000000003      -0.11695500000000000       
   1.0129999999999999        1.5458000000000000E-002  0.55736799999999997       
  0.30230000000000001       -2.5850000000000001E-003  0.57275900000000002       
    4    2                                                                      
   17.699999999999999        4.3018000000000001E-002   0.0000000000000000       
   3.8540000000000001       0.22891300000000001        0.0000000000000000       
   1.0460000000000000       0.50872799999999996        0.0000000000000000       
  0.27529999999999999       0.46053100000000002        1.0000000000000000       
    1    1                                                                      
   1.1850000000000001        1.0000000000000000                                 
FINISH                                                                          

********************************************************************************
 ONE- AND TWO-ELECTRON INTEGRALS OVER SYMMETRY-ADAPTED AOS ARE CALCULATED.

  SPHERICAL HARMONICS ARE USED.
  
  INTEGRALS LESS THAN  0.10E-13 ARE NEGLECTED.

  NUCLEAR REPULSION ENERGY :  794.3241699683 A.U.
  @MOLECU-I, ONE ELECTRON INTEGRALS (CPU/WALL):        1.96/       0.09 SECONDS.
  @TWOEL-I,    4283576 INTEGRALS OF SYMMETRY TYPE  I I I I
  @TWOEL-I,   13298506 INTEGRALS OF SYMMETRY TYPE  I J I J
  @TWOEL-I,    6960296 INTEGRALS OF SYMMETRY TYPE  I I J J
  @TWOEL-I,    8577160 INTEGRALS OF SYMMETRY TYPE  I J K L
  @TWOEL-I, TOTAL NUMBER OF 2-E INTEGRALS   33119538.
  @MOLECU-I, TWO ELECTRON INTEGRALS (CPU/WALL):       64.05/      17.70 SECONDS.
 @CHECKOUT-I, Total execution time (CPU/WALL):       66.09/      17.80 seconds.
--executable xvmol finished with status     0 in       17.83 seconds (walltime).
 --invoking executable--
/opt/cfour/2.1/bin/xvmol2ja
 @GETMEM-I,  Allocated   30517 MB of main memory.
 @CHECKOUT-I, Total execution time (CPU/WALL):        0.58/       0.02 seconds.
--executable xvmol2ja finished with status     0 in        0.05 seconds (walltime).
  a 
 --invoking executable--
/opt/cfour/2.1/bin/xvdint
 @GETMEM-I,  Allocated   30517 MB of main memory.
 One- and two-electron integral derivatives are calculated
 Spherical gaussians are used.
 Evaluated one-electron integrals:   dipole integrals
  keyword missing for gradient integrals in sfree
  pVp integrals for spin-free DHF
  derivative pVp integrals for spin-free DHF
 Evaluation of 1e integral derivatives required   26.72 seconds.
 Evaluation of 2e integral derivatives required    0.00 seconds.


 @CHECKOUT-I, Total execution time (CPU/WALL):       26.70/      15.49 seconds.
--executable xvdint finished with status     0 in       16.73 seconds (walltime).
 --invoking executable--
/opt/cfour/2.1/bin/xvpropx2c
 @GETMEM-I,  Allocated   30517 MB of main memory.
 @CHECKOUT-I, Total execution time (CPU/WALL):        6.63/       0.24 seconds.
--executable xvpropx2c finished with status     0 in        0.28 seconds (walltime).
 --invoking executable--
/opt/cfour/2.1/bin/xvmol2ja
 @GETMEM-I,  Allocated   30517 MB of main memory.
 @CHECKOUT-I, Total execution time (CPU/WALL):        0.78/       0.04 seconds.
--executable xvmol2ja finished with status     0 in        0.05 seconds (walltime).
 --invoking executable--
/opt/cfour/2.1/bin/xvscf
  There are  183 functions in the AO basis.

  There are 4 irreducible representations.

       Irrep        # of functions
         1                 73
         2                 44
         3                 44
         4                 22


  Parameters for SCF calculation: 
        SCF reference function:  RHF  
  Maximum number of iterations:  500
     Full symmetry point group: D3h 
     Computational point group: C2v 
        Initial density matrix: MOREAD                 
     SCF convergence tolerance: 10**(-10)
  DIIS convergence acceleration:  ON
          Latest start for DIIS:   8
                     DIIS order:   6

     Alpha population by irrep:  23   11   11    3
      Beta population by irrep:  23   11   11    3


  Memory information:    1346178 words required.
  Fock matrices are constructed from AO integral file.
 @GETMEM-I,  Allocated      10 MB of main memory.
  Initialization and symmetry analysis required      0.028 seconds.

 total no. of electrons in initial guess :   0.0000000000000000     
  --------------------------------------------------------------------
  Iteration         Total Energy            Largest Density Difference
  --------------------------------------------------------------------
       0           794.324169968254751              0.0000000000D+00
   current occupation vector 
    23 11 11  3
    23 11 11  3
       1         -1396.775594542177259              0.9511377007D+03
   current occupation vector 
    23 11 11  3
    23 11 11  3
       2         -1260.765683043055105              0.9151135069D+03
   current occupation vector 
    23 11 11  3
    23 11 11  3
       3         -1392.577319310062649              0.9592762095D+03
   current occupation vector 
    23 11 11  3
    23 11 11  3
       4         -1260.650380177666648              0.9692661916D+03
   current occupation vector 
    23 11 11  3
    23 11 11  3
       5         -1392.544225832083612              0.9713131105D+03
   current occupation vector 
    23 11 11  3
    23 11 11  3
       6         -1260.652310790266711              0.9714202630D+03
   current occupation vector 
    23 11 11  3
    23 11 11  3
       7         -1392.543924400860760              0.9714417539D+03
   current occupation vector 
    23 11 11  3
    23 11 11  3
       8         -1260.652336689539425              0.9714432869D+03
   current occupation vector 
    23 11 11  3
    23 11 11  3
       9         -1701.049299480183890              0.2970327959D+02
   current occupation vector 
    23 11 11  3
    23 11 11  3
      10         -1792.501128232830979              0.4901558709D+02
   current occupation vector 
    23 11 11  3
    23 11 11  3
      11         -1814.074301560012827              0.3069062398D+02
   current occupation vector 
    23 11 11  3
    23 11 11  3
      12         -1819.644376746050966              0.1463679830D+02
   current occupation vector 
    23 11 11  3
    23 11 11  3
      13         -1833.046454315769552              0.1662620215D+02
   current occupation vector 
    23 11 11  3
    23 11 11  3
      14         -1831.733627477769915              0.5781123084D+01
   current occupation vector 
    23 11 11  3
    23 11 11  3
      15         -1833.425570642472394              0.3906938424D+01
   current occupation vector 
    23 11 11  3
    23 11 11  3
      16         -1833.639287488766513              0.7539604148D+00
   current occupation vector 
    23 11 11  3
    23 11 11  3
      17         -1833.650877613242756              0.2739821863D+00
   current occupation vector 
    23 11 11  3
    23 11 11  3
      18         -1833.654192730488376              0.8079623259D-01
   current occupation vector 
    23 11 11  3
    23 11 11  3
      19         -1833.656612810921160              0.7739563121D-01
   current occupation vector 
    23 11 11  3
    23 11 11  3
      20         -1833.657372132048749              0.7776275660D-01
   current occupation vector 
    23 11 11  3
    23 11 11  3
      21         -1833.657660362874594              0.4094961141D-01
   current occupation vector 
    23 11 11  3
    23 11 11  3
      22         -1833.657849563830951              0.5050515577D-01
   current occupation vector 
    23 11 11  3
    23 11 11  3
      23         -1833.657898473950809              0.3777014359D-01
   current occupation vector 
    23 11 11  3
    23 11 11  3
      24         -1833.657903690990679              0.6622951135D-02
   current occupation vector 
    23 11 11  3
    23 11 11  3
      25         -1833.657904634871102              0.4435896013D-02
   current occupation vector 
    23 11 11  3
    23 11 11  3
      26         -1833.657904898835568              0.1970276553D-02
   current occupation vector 
    23 11 11  3
    23 11 11  3
      27         -1833.657905506411225              0.5182166459D-02
   current occupation vector 
    23 11 11  3
    23 11 11  3
      28         -1833.657906045149048              0.5502940740D-02
   current occupation vector 
    23 11 11  3
    23 11 11  3
      29         -1833.657906673206526              0.8316573728D-02
   current occupation vector 
    23 11 11  3
    23 11 11  3
      30         -1833.657907201391936              0.1027277450D-01
   current occupation vector 
    23 11 11  3
    23 11 11  3
      31         -1833.657907412286932              0.8850442097D-02
   current occupation vector 
    23 11 11  3
    23 11 11  3
      32         -1833.657907432743741              0.2088218998D-02
   current occupation vector 
    23 11 11  3
    23 11 11  3
      33         -1833.657907436437654              0.7973131155D-03
   current occupation vector 
    23 11 11  3
    23 11 11  3
      34         -1833.657907437238009              0.1236117261D-03
   current occupation vector 
    23 11 11  3
    23 11 11  3
      35         -1833.657907438268012              0.2330891709D-03
   current occupation vector 
    23 11 11  3
    23 11 11  3
      36         -1833.657907438529946              0.4888839940D-04
   current occupation vector 
    23 11 11  3
    23 11 11  3
      37         -1833.657907438557686              0.1148141401D-03
   current occupation vector 
    23 11 11  3
    23 11 11  3
      38         -1833.657907438594066              0.6170667308D-05
   current occupation vector 
    23 11 11  3
    23 11 11  3
      39         -1833.657907438561779              0.4142384535D-05
   current occupation vector 
    23 11 11  3
    23 11 11  3
      40         -1833.657907438590428              0.2004010518D-04
   current occupation vector 
    23 11 11  3
    23 11 11  3
      41         -1833.657907438617713              0.5827423221D-04
   current occupation vector 
    23 11 11  3
    23 11 11  3
      42         -1833.657907438645452              0.3597036055D-04
   current occupation vector 
    23 11 11  3
    23 11 11  3
      43         -1833.657907438665461              0.4095916219D-04
   current occupation vector 
    23 11 11  3
    23 11 11  3
      44         -1833.657907438672737              0.4171767889D-04
   current occupation vector 
    23 11 11  3
    23 11 11  3
      45         -1833.657907438670009              0.2076525544D-04
   current occupation vector 
    23 11 11  3
    23 11 11  3
      46         -1833.657907438646816              0.5982080676D-05
   current occupation vector 
    23 11 11  3
    23 11 11  3
      47         -1833.657907438670009              0.2745050963D-05
   current occupation vector 
    23 11 11  3
    23 11 11  3
      48         -1833.657907438672737              0.5268405055D-05
   current occupation vector 
    23 11 11  3
    23 11 11  3
      49         -1833.657907438660914              0.4829323625D-06
   current occupation vector 
    23 11 11  3
    23 11 11  3
      50         -1833.657907438655457              0.6586417225D-06
   current occupation vector 
    23 11 11  3
    23 11 11  3
      51         -1833.657907438675920              0.3860054472D-06
   current occupation vector 
    23 11 11  3
    23 11 11  3
      52         -1833.657907438654547              0.9118617861D-06
   current occupation vector 
    23 11 11  3
    23 11 11  3
      53         -1833.657907438668190              0.6930779168D-06
   current occupation vector 
    23 11 11  3
    23 11 11  3
      54         -1833.657907438654547              0.2378979715D-06
   current occupation vector 
    23 11 11  3
    23 11 11  3
      55         -1833.657907438671373              0.1053402343D-06
   current occupation vector 
    23 11 11  3
    23 11 11  3
      56         -1833.657907438671373              0.2239202628D-06
   current occupation vector 
    23 11 11  3
    23 11 11  3
      57         -1833.657907438662278              0.1109712766D-06
   current occupation vector 
    23 11 11  3
    23 11 11  3
      58         -1833.657907438659095              0.4175588497D-07
   current occupation vector 
    23 11 11  3
    23 11 11  3
      59         -1833.657907438659549              0.1905221847D-07
   current occupation vector 
    23 11 11  3
    23 11 11  3
      60         -1833.657907438663187              0.6651030038D-07
   current occupation vector 
    23 11 11  3
    23 11 11  3
      61         -1833.657907438671373              0.3099342294D-07
   current occupation vector 
    23 11 11  3
    23 11 11  3
      62         -1833.657907438669099              0.1635809088D-07
   current occupation vector 
    23 11 11  3
    23 11 11  3
      63         -1833.657907438659095              0.6013174847D-08
   current occupation vector 
    23 11 11  3
    23 11 11  3
      64         -1833.657907438661823              0.6530076035D-08
   current occupation vector 
    23 11 11  3
    23 11 11  3
      65         -1833.657907438657730              0.1139477757D-07
   current occupation vector 
    23 11 11  3
    23 11 11  3
      66         -1833.657907438652728              0.1043727771D-08
   current occupation vector 
    23 11 11  3
    23 11 11  3
      67         -1833.657907438653183              0.1924596482D-08
   current occupation vector 
    23 11 11  3
    23 11 11  3
      68         -1833.657907438665006              0.8082743364D-09
   current occupation vector 
    23 11 11  3
    23 11 11  3
      69         -1833.657907438650909              0.1003940042D-08
   current occupation vector 
    23 11 11  3
    23 11 11  3
      70         -1833.657907438664097              0.5108189427D-09
   current occupation vector 
    23 11 11  3
    23 11 11  3
      71         -1833.657907438663642              0.2141584687D-09
   current occupation vector 
    23 11 11  3
    23 11 11  3
      72         -1833.657907438659549              0.1641389247D-09
   current occupation vector 
    23 11 11  3
    23 11 11  3
      73         -1833.657907438656821              0.1799200788D-09
   current occupation vector 
    23 11 11  3
    23 11 11  3
      74         -1833.657907438668644              0.2386650877D-09
   current occupation vector 
    23 11 11  3
    23 11 11  3
      75         -1833.657907438660914              0.2833626667D-09
   current occupation vector 
    23 11 11  3
    23 11 11  3
      76         -1833.657907438659095              0.2141513633D-09
   current occupation vector 
    23 11 11  3
    23 11 11  3
      77         -1833.657907438649090              0.3139444260D-09
   current occupation vector 
    23 11 11  3
    23 11 11  3
      78         -1833.657907438657730              0.1677689099D-09
   current occupation vector 
    23 11 11  3
    23 11 11  3

  SCF has converged.

 Density matrix saved to file den.dat
 total electron number:   96.000000000000242     
     E(SCF)=     -1833.657907438648635              0.5883560306D-10

  Eigenvector printing suppressed.

 @PUTMOS-I, Writing converged MOs to NEWMOS. 
 @PUTMOS-I, Symmetry   1 Full Blocks 18 Partial Blocksize   1
 @PUTMOS-I, Symmetry   2 Full Blocks 11 Partial Blocksize   0
 @PUTMOS-I, Symmetry   3 Full Blocks 11 Partial Blocksize   0
 @PUTMOS-I, Symmetry   4 Full Blocks  5 Partial Blocksize   2
 @PUTFOCK-I, Writing converged Fock matrix to NEWFOCK. 
 @PUTFOCK-I, Symmetry   1 Full Blocks 18 Partial Blocksize   1
 @PUTFOCK-I, Symmetry   2 Full Blocks 11 Partial Blocksize   0
 @PUTFOCK-I, Symmetry   3 Full Blocks 11 Partial Blocksize   0
 @PUTFOCK-I, Symmetry   4 Full Blocks  5 Partial Blocksize   2



  ORBITAL EIGENVALUES (ALPHA)  (1H = 27.2113834 eV)

       MO #        E(hartree)               E(eV)           FULLSYM    COMPSYM
       ----   --------------------   --------------------   -------   ---------
    1     1        -263.5301800124       -7171.0207657893    A1'         A1 (1)
    2     2         -32.4606567009        -883.2993749039    A1'         A1 (1)
    3   118         -27.6437381191        -752.2243565679    A              (3)
    4    74         -27.6336509468        -751.9498706552     E           1 (2)
    5     3         -27.6336509468        -751.9498706551     E             (1)
    6   119         -20.7088702953        -563.5170093870     E             (3)
    7     4         -20.7088688144        -563.5169690879     E             (1)
    8    75         -20.6838014520        -562.8348514808                A1 (2)
    9     5         -20.6838014520        -562.8348514807                   (1)
   10     6         -20.6838002736        -562.8348194149                   (1)
   11   120         -11.4202610133        -310.7611009610     E             (3)
   12     7         -11.4202585919        -310.7610350702     E             (1)
   13    76         -11.4042066002        -310.3242381714                   (2)
   14     8         -11.4042066002        -310.3242381713                   (1)
   15     9         -11.4042061668        -310.3242263785                   (1)
   16    10          -4.2091161291        -114.5358727630    A              (1)
   17   121          -2.7479084909         -74.7743914936    A              (3)
   18    77          -2.7352973868         -74.4312259040     E             (2)
   19    11          -2.7352973868         -74.4312259040     E             (1)
   20    12          -1.5299152117         -41.6311093947    A              (1)
   21   122          -1.5298187436         -41.6284843645    A              (3)
   22    13          -1.5059843335         -40.9799170922    A              (1)
   23    78          -1.5058062678         -40.9750716792     E             (2)
   24    14          -1.5058062678         -40.9750716791     E             (1)
   25    15          -0.8672320192         -23.5985829719    A              (1)
   26   123          -0.8289742162         -22.5575352258    A              (3)
   27    79          -0.8084223087         -21.9982893907     E             (2)
   28    16          -0.8084223087         -21.9982893906     E             (1)
   29    17          -0.8082042996         -21.9923570624    A              (1)
   30    18          -0.7302256055         -19.8704489207    A              (1)
   31   162          -0.6681173387         -18.1803970584     E'          1 (4)
   32   124          -0.6681173387         -18.1803970583     E'         A1 (3)
   33   125          -0.6674745090         -18.1629047744    A              (3)
   34    80          -0.6652734087         -18.1030097889     E             (2)
   35    19          -0.6652734087         -18.1030097889     E             (1)
   36    20          -0.6426882572         -17.4884365727     E             (1)
   37    81          -0.6426882572         -17.4884365726     E             (2)
   38    82          -0.6318315187         -17.1930096997    A '          1 (2)
   39   163          -0.6253057619         -17.0154348281     E'          1 (4)
   40   126          -0.6253057619         -17.0154348280     E'         A1 (3)
   41    83          -0.6224100877         -16.9366395271     E             (2)
   42    21          -0.6224100876         -16.9366395271     E             (1)
   43    22          -0.6045997416         -16.4519953722    A              (1)
   44   127          -0.6011600765         -16.3583973276    A              (3)
   45   128          -0.4803857954         -13.0719620599     E'         A1 (3)
   46   164          -0.4803857954         -13.0719620597     E'          1 (4)
   47    23          -0.3427625375          -9.3270428221     E             (1)
   48    84          -0.3427625374          -9.3270428217     E             (2)
  +++++++++++++++++++++++++++++++++++++++++++++++++++++++++++++++++++++++++++++
   49    24           0.0817657775           2.2249599199    A '          1 (1)
   50   129           0.0918460743           2.4992587407     E'         A1 (3)
   51   165           0.0918460743           2.4992587408     E'          1 (4)
   52   130           0.1044620316           2.8425563924    A              (3)
   53    25           0.1103361001           3.0023979222     E             (1)
   54    85           0.1103361001           3.0023979224     E             (2)
   55    26           0.1333183823           3.6277776157     E             (1)
   56    86           0.1333183823           3.6277776157     E             (2)
   57    87           0.1375320667           3.7424377977    A '          1 (2)
   58   131           0.1480428286           4.0284501677    A              (3)
   59    27           0.1525319071           4.1506042046     E             (1)
   60    88           0.1525319071           4.1506042048     E           1 (2)
   61   166           0.2121089878           5.7717789885     E'          1 (4)
   62   132           0.2121089878           5.7717789886     E'         A1 (3)
   63    28           0.2713174589           7.3829233969    A              (1)
   64    29           0.3471598503           9.4466997887    A              (1)
   65    30           0.3736905813          10.1686376817     E             (1)
   66    89           0.3736905814          10.1686376827     E             (2)
   67   167           0.4338744296          11.8063234503     E'          1 (4)
   68   133           0.4338744296          11.8063234503     E'         A1 (3)
   69   134           0.4755443646          12.9402200282    A              (3)
   70    31           0.4803854845          13.0719535979    A              (1)
   71    32           0.5338073484          14.5256364201    A              (1)
   72    33           0.5403540010          14.7037798925     E             (1)
   73    90           0.5403540010          14.7037798932     E             (2)
   74   135           0.6513797569          17.7249443039    A              (3)
   75    34           0.6738262735          18.3357450740     E             (1)
   76    91           0.6738262736          18.3357450754     E             (2)
   77    35           0.6947126586          18.9040925069    A              (1)
   78   168           0.7002009626          19.0534368508     E'          1 (4)
   79   136           0.7002009626          19.0534368509     E'         A1 (3)
   80    36           0.7352917197          20.0083048948     E             (1)
   81    92           0.7352917197          20.0083048948     E           1 (2)
   82    93           0.7706475498          20.9703859443    A '          1 (2)
   83   137           0.7771218123          21.1465595830    A              (3)
   84    37           0.8372972581          22.7840167102    A              (1)
   85    38           0.8610942680          23.4315662693     E             (1)
   86    94           0.8610942680          23.4315662697     E             (2)
   87   138           0.8712070726          23.7067496742     E'         A1 (3)
   88   169           0.8712070726          23.7067496742     E'          1 (4)
   89   139           0.8998116589          24.4851200386    A              (3)
   90    39           0.9252573925          25.1775336498     E             (1)
   91    95           0.9252573925          25.1775336506     E             (2)
   92    40           0.9405748989          25.5943441903    A              (1)
   93    41           0.9873837775          26.8680785318    A              (1)
   94    42           1.0128500203          27.5610502293     E             (1)
   95    96           1.0128500203          27.5610502295     E             (2)
   96   140           1.0155453950          27.6343951026    A              (3)
   97    43           1.0639912140          28.9526728597    A              (1)
   98    44           1.2168433882          33.1119919732     E             (1)
   99    97           1.2168433882          33.1119919734     E             (2)
  100   170           1.2270342416          33.3892991943     E'          1 (4)
  101   141           1.2270342416          33.3892991943     E'         A1 (3)
  102   142           1.2452842537          33.8859072686    A              (3)
  103   171           1.2506692354          34.0324400714     E'          1 (4)
  104   143           1.2506692354          34.0324400715     E'         A1 (3)
  105    45           1.2629903953          34.3677158784     E             (1)
  106    98           1.2629903954          34.3677158785     E             (2)
  107    99           1.2879356612          35.0465110716    A '          1 (2)
  108   172           1.3154389404          35.7949133459    A1'            (4)
  109    46           1.3243596469          36.0376581116     E             (1)
  110   100           1.3243596469          36.0376581116     E             (2)
  111    47           1.3310907187          36.2208198868    A              (1)
  112   173           1.3465038149          36.6402315580     E'          1 (4)
  113   144           1.3465038149          36.6402315580     E'         A1 (3)
  114   145           1.3873488102          37.7516803837     E'         A1 (3)
  115   174           1.3873488102          37.7516803838     E'          1 (4)
  116    48           1.4040984998          38.2074626096     E             (1)
  117   101           1.4040984998          38.2074626098     E             (2)
  118   102           1.4458457676          39.3434635206    A '          1 (2)
  119   146           1.4484920862          39.4154735085    A              (3)
  120    49           1.4848755390          40.4055175923     E             (1)
  121   103           1.4848755390          40.4055175923     E           1 (2)
  122   147           1.5012821545          40.8519642988     E'         A1 (3)
  123   175           1.5012821545          40.8519642989     E'          1 (4)
  124    50           1.5791890575          42.9719189058    A              (1)
  125    51           1.5868814722          43.1812401513     E             (1)
  126   104           1.5868814724          43.1812401572     E           1 (2)
  127   148           1.6099119753          43.8079320012    A              (3)
  128   176           1.7012078078          46.2922179007     E'          1 (4)
  129   149           1.7012078078          46.2922179007     E'         A1 (3)
  130    52           1.7198387362          46.7991912377     E             (1)
  131   105           1.7198387363          46.7991912398     E             (2)
  132    53           1.7559317930          47.7813332447    A              (1)
  133   150           1.8177921605          49.4646394208    A              (3)
  134    54           1.8388191671          50.0368133589     E             (1)
  135   106           1.8388191671          50.0368133596     E             (2)
  136    55           1.9262102330          52.4148451601    A              (1)
  137    56           2.1127961447          57.4921059388    A              (1)
  138   151           2.1300868261          57.9626093001    A              (3)
  139   107           2.1472831468          58.4305449748     E             (2)
  140    57           2.1472831468          58.4305449748     E             (1)
  141    58           2.1693226101          59.0302692626    A              (1)
  142   152           2.2974783896          62.5175653133     E'         A1 (3)
  143   177           2.2974783896          62.5175653133     E'          1 (4)
  144    59           2.4748143538          67.3431222255    A              (1)
  145    60           2.5078137118          68.2410804066     E             (1)
  146   108           2.5078137118          68.2410804085     E             (2)
  147   153           2.8389638615          77.2521340943    A              (3)
  148    61           2.8887817060          78.6077465603    A              (1)
  149   178           2.9194271734          79.4416521245     E'          1 (4)
  150   154           2.9194271734          79.4416521245     E'         A1 (3)
  151    62           2.9214681548          79.4971900505     E             (1)
  152   109           2.9214681548          79.4971900505     E           1 (2)
  153   179           2.9350888336          79.8678275655    A1'            (4)
  154   110           2.9390938010          79.9768082677     E             (2)
  155    63           2.9390938010          79.9768082677     E             (1)
  156   155           2.9404074764          80.0125551937     E'         A1 (3)
  157   180           2.9404074764          80.0125551938     E'         A1 (4)
  158    64           2.9555047809          80.4233737337    A              (1)
  159    65           3.0715841896          83.5820550277     E             (1)
  160   111           3.0715841896          83.5820550277     E             (2)
  161   112           3.2290172503          87.8660264039    A '          1 (2)
  162   181           3.2972668241          89.7231917234     E'          1 (4)
  163   156           3.2972668241          89.7231917234     E'         A1 (3)
  164    66           3.4695229453          94.4105190801     E             (1)
  165   113           3.4695229453          94.4105190801     E             (2)
  166   157           3.4858219007          94.8540362037    A              (3)
  167   158           3.4897557889          94.9610827440     E'         A1 (3)
  168   182           3.4897557889          94.9610827440     E'          1 (4)
  169    67           3.5677319020          97.0829206533     E             (1)
  170   114           3.5677319020          97.0829206533     E             (2)
  171    68           3.5737233917          97.2459573777    A              (1)
  172   183           3.7788252149         102.8270617255     E'          1 (4)
  173   159           3.7788252149         102.8270617255     E'         A1 (3)
  174    69           3.8368973786         104.4072856344    A              (1)
  175   160           3.8426877346         104.5648492316    A              (3)
  176   115           3.8685793167         105.2693950000     E             (2)
  177    70           3.8685793167         105.2693950000     E             (1)
  178   116           3.9563664071         107.6582031735    A '          1 (2)
  179    71           3.9922316543         108.6341461676    A              (1)
  180    72           4.2012437807         114.3216552736     E             (1)
  181   117           4.2012437807         114.3216552736     E             (2)
  182   161           4.4667693762         121.5469740544    A              (3)
  183    73           4.5189138101         122.9658962370    A              (1)


  VSCF finished.

 @CHECKOUT-I, Total execution time (CPU/WALL):      256.56/      18.63 seconds.
--executable xvscf finished with status     0 in       18.65 seconds (walltime).
 --invoking executable--
/opt/cfour/2.1/bin/xvtran
 @GETMEM-I,  Allocated   30517 MB of main memory.
  Full RHF integral transformation
  The following  15 MOs will be dropped:
    1  2  3  4  5  6  7  8  9 24 25 26 35 36 37
  There are 168 active molecular orbitals.
  Transformation of IIII integrals :
  1 pass through the AO integral file was required.
     4283576 AO integrals were read.
     2938485 MO integrals were written to HF2.
  Transformation of IIJJ integrals :
  1 pass through the AO integral file was required.
     6960296 AO integrals were read.
     5284874 MO integrals were written to HF2.
  Transformation of IJIJ integrals :
  1 pass through the AO integral file was required.
    13298506 AO integrals were read.
    10107713 MO integrals were written to HF2.
  Transformation of IJKL integrals :
  1 pass through the AO integral file was required.
     8577160 AO integrals were read.
     7100248 MO integrals were written to HF2.
  Summary of active molecular orbitals: 
------------------------------------------------------------------------

  Index      Eigenvalue    Symmetry    Index      Eigenvalue    Symmetry
------------------------------------------------------------------------
     1        -4.2091161        1        85         0.1333184        2
     2        -2.7352974        1        86         0.1375321        2
     3        -1.5299152        1        87         0.1525319        2
     4        -1.5059843        1        88         0.3736906        2
     5        -1.5058063        1        89         0.5403540        2
     6        -0.8672320        1        90         0.6738263        2
     7        -0.8084223        1        91         0.7352917        2
     8        -0.8082043        1        92         0.7706475        2
     9        -0.7302256        1        93         0.8610943        2
    10        -0.6652734        1        94         0.9252574        2
    11        -0.6426883        1        95         1.0128500        2
    12        -0.6224101        1        96         1.2168434        2
    13        -0.6045997        1        97         1.2629904        2
    14        -0.3427625        1        98         1.2879357        2
    15        -2.7352974        2        99         1.3243596        2
    16        -1.5058063        2       100         1.4040985        2
    17        -0.8084223        2       101         1.4458458        2
    18        -0.6652734        2       102         1.4848755        2
    19        -0.6426883        2       103         1.5868815        2
    20        -0.6318315        2       104         1.7198387        2
    21        -0.6224101        2       105         1.8388192        2
    22        -0.3427625        2       106         2.1472831        2
    23        -2.7479085        3       107         2.5078137        2
    24        -1.5298187        3       108         2.9214682        2
    25        -0.8289742        3       109         2.9390938        2
    26        -0.6681173        3       110         3.0715842        2
    27        -0.6674745        3       111         3.2290173        2
    28        -0.6253058        3       112         3.4695229        2
    29        -0.6011601        3       113         3.5677319        2
    30        -0.4803858        3       114         3.8685793        2
    31        -0.6681173        4       115         3.9563664        2
    32        -0.6253058        4       116         4.2012438        2
    33        -0.4803858        4       117         0.0918461        3
    34         0.0817658        1       118         0.1044620        3
    35         0.1103361        1       119         0.1480428        3
    36         0.1333184        1       120         0.2121090        3
    37         0.1525319        1       121         0.4338744        3
    38         0.2713175        1       122         0.4755444        3
    39         0.3471599        1       123         0.6513798        3
    40         0.3736906        1       124         0.7002010        3
    41         0.4803855        1       125         0.7771218        3
    42         0.5338073        1       126         0.8712071        3
    43         0.5403540        1       127         0.8998117        3
    44         0.6738263        1       128         1.0155454        3
    45         0.6947127        1       129         1.2270342        3
    46         0.7352917        1       130         1.2452843        3
    47         0.8372973        1       131         1.2506692        3
    48         0.8610943        1       132         1.3465038        3
    49         0.9252574        1       133         1.3873488        3
    50         0.9405749        1       134         1.4484921        3
    51         0.9873838        1       135         1.5012822        3
    52         1.0128500        1       136         1.6099120        3
    53         1.0639912        1       137         1.7012078        3
    54         1.2168434        1       138         1.8177922        3
    55         1.2629904        1       139         2.1300868        3
    56         1.3243596        1       140         2.2974784        3
    57         1.3310907        1       141         2.8389639        3
    58         1.4040985        1       142         2.9194272        3
    59         1.4848755        1       143         2.9404075        3
    60         1.5791891        1       144         3.2972668        3
    61         1.5868815        1       145         3.4858219        3
    62         1.7198387        1       146         3.4897558        3
    63         1.7559318        1       147         3.7788252        3
    64         1.8388192        1       148         3.8426877        3
    65         1.9262102        1       149         4.4667694        3
    66         2.1127961        1       150         0.0918461        4
    67         2.1472831        1       151         0.2121090        4
    68         2.1693226        1       152         0.4338744        4
    69         2.4748144        1       153         0.7002010        4
    70         2.5078137        1       154         0.8712071        4
    71         2.8887817        1       155         1.2270342        4
    72         2.9214682        1       156         1.2506692        4
    73         2.9390938        1       157         1.3154389        4
    74         2.9555048        1       158         1.3465038        4
    75         3.0715842        1       159         1.3873488        4
    76         3.4695229        1       160         1.5012822        4
    77         3.5677319        1       161         1.7012078        4
    78         3.5737234        1       162         2.2974784        4
    79         3.8368974        1       163         2.9194272        4
    80         3.8685793        1       164         2.9350888        4
    81         3.9922317        1       165         2.9404075        4
    82         4.2012438        1       166         3.2972668        4
    83         4.5189138        1       167         3.4897558        4
    84         0.1103361        2       168         3.7788252        4
------------------------------------------------------------------------
[...]
 137    129    3       1.7012   0.000    0.000    0.000    0.000    0.000    0.000
 138    133    3       1.8178   0.000    0.000    0.000    0.000    0.000    0.000
 139    138    3       2.1301   0.000    0.000    0.000    0.000    0.000    0.000
 140    142    3       2.2975   0.000    0.000    0.000    0.000    0.000    0.000
 141    147    3       2.8390   0.000    0.000    0.000    0.000    0.000    0.000
 142    150    3       2.9194   0.000    0.000    0.000    0.000    0.000    0.000
 143    156    3       2.9404   0.000    0.000    0.000    0.000    0.000    0.000
 144    163    3       3.2973   0.000    0.000    0.000    0.000    0.000    0.000
 145    166    3       3.4858   0.000    0.000    0.000    0.000    0.000    0.000
 146    167    3       3.4898   0.000    0.000    0.000    0.000    0.000    0.000
 147    173    3       3.7788   0.000    0.000    0.000    0.000    0.000    0.000
 148    175    3       3.8427   0.000    0.000    0.000    0.000    0.000    0.000
 149    182    3       4.4668   0.000    0.000    0.000    0.000    0.000    0.000
 150     51    4       0.0918   0.000    0.000    0.000    0.000    0.000    0.000
 151     61    4       0.2121   0.000    0.000    0.000    0.000    0.000    0.000
 152     67    4       0.4339   0.000    0.000    0.000    0.000    0.000    0.000
 153     78    4       0.7002   0.000    0.000    0.000    0.000    0.000    0.000
 154     88    4       0.8712   0.000    0.000    0.000    0.000    0.000    0.000
 155    100    4       1.2270   0.000    0.000    0.000    0.000    0.000    0.000
 156    103    4       1.2507   0.000    0.000    0.000    0.000    0.000    0.000
 157    108    4       1.3154   0.000    0.000    0.000    0.000    0.000    0.000
 158    112    4       1.3465   0.000    0.000    0.000    0.000    0.000    0.000
 159    115    4       1.3873   0.000    0.000    0.000    0.000    0.000    0.000
 160    123    4       1.5013   0.000    0.000    0.000    0.000    0.000    0.000
 161    128    4       1.7012   0.000    0.000    0.000    0.000    0.000    0.000
 162    143    4       2.2975   0.000    0.000    0.000    0.000    0.000    0.000
 163    149    4       2.9194   0.000    0.000    0.000    0.000    0.000    0.000
 164    153    4       2.9351   0.000    0.000    0.000    0.000    0.000    0.000
 165    157    4       2.9404   0.000    0.000    0.000    0.000    0.000    0.000
 166    162    4       3.2973   0.000    0.000    0.000    0.000    0.000    0.000
 167    168    4       3.4898   0.000    0.000    0.000    0.000    0.000    0.000
 168    172    4       3.7788   0.000    0.000    0.000    0.000    0.000    0.000
------------------------------------------------------------------------------
  @DRVTDA-I, Roots obtained by Davidson method.
  calling tda davidson                      4                    1
  after tda davidson                     4                    4                    1                    1
  kroot is                     1
__________________________________________________________________________
    Tamm-Dancoff (CIS) Excitation Energies and Transition Moments

                Excitation         Transition Dipole         Oscillator
 Root  Symmetry  Energy         x           y           z     Strength
__________________________________________________________________________
   1       1    0.13853      0.0000      0.0000      0.0000  .00000000D+00
__________________________________________________________________________

__________________________________________________________________________
  TDA excitation ergy:             0.138526328001 a.u.    3.7695 eV
  Total TDA electronic energy: -1833.519381110648 a.u.

  Dominant contributions: 
  SCF eigenvalue ordering used in list below. 
--------------------------------------------------------------------------------
    I    j    A    b
--------------------------------------------------------------------------------
   47    0   63    0  -0.4410538323 AA  
   47    0   59    0  -0.4332998318 AA  
   48    0   60    0   0.4332996906 AA  
   47    0   53    0  -0.3506275844 AA  
   48    0   54    0   0.3506274720 AA  
   47    0   64    0   0.2108390374 AA  
   47    0   55    0   0.1446290754 AA  
   48    0   56    0  -0.1446290494 AA  
   47    0   71    0   0.1015783514 AA  
   45    0   50    0  -0.0988598060 AA  
   46    0   51    0   0.0988596801 AA  
   36    0   63    0  -0.0655579372 AA  
   47    0   72    0   0.0652038639 AA  
   48    0   73    0  -0.0652038412 AA  
   47    0   70    0  -0.0608530881 AA  
--------------------------------------------------------------------------------
__________________________________________________________________________
  @DOEOMEE-I, Excitation energies computed by the EOMEE-CC3/CC3-LR method.
  @DOEOMEE-I, right-hand eigenvectors will be computed.
  Beginning symmetry block   1.   1 roots requested.
  @DOEOMEE-I, Matrix dimension for diagonalization:  5021184
  Creating initial guess for root
________________________________________________________________________
            Subspace          Eigenvalue           
 Iteration  Dimension   (a.u.)         (eV)       Overlap      Residual
________________________________________________________________________
  @NEWGES-I, Using TDA initial guess.
R:     0.707106781186548
HR:    0.591809158496062
      1        1    0.308899944D+00  0.8405595D+01 .000000D+00 .296288D+00
R:     0.816229288351535
HR:    1.975500581896529
      2        2    0.165706166D+00  0.4509094D+01 .955159D+00 .122108D+00
R:     0.751734154273266
HR:    1.193978145104694
  L-O-C-K-I-N-G O-N R-O-O-T 
      3        3    0.149555182D+00  0.4069603D+01 .989713D+00 .906718D-01
R:     0.760147722262109
HR:    1.811201835071070
      4        4    0.142320003D+00  0.3872724D+01 .990513D+00 .419241D-01
R:     0.729514934332960
HR:    0.109424428457167
      5        5    0.143659100D+00  0.3909163D+01 .114847D-01 .428598D-01
R:     0.727685874167408
HR:    0.105270460561223
      6        6    0.141290236D+00  0.3844703D+01 .435457D-01 .413753D-01
R:     0.727164457590630
HR:    0.103771600759960
      7        7    0.136172536D+00  0.3705443D+01 .102235D+00 .441264D-01
R:     0.726442020243705
HR:    0.102534198004006
      8        8    0.134753790D+00  0.3666837D+01 .159627D+00 .471524D-01
R:     0.724064641778708
HR:    0.100842135897507
      9        9    0.134789701D+00  0.3667814D+01 .996216D-01 .500805D-01
R:     0.722005131589211
HR:    0.099617199946695
     10       10    0.131746803D+00  0.3585013D+01 .437859D-01 .252551D-01
R:     0.722082343983472
HR:    0.095798770508666
 The phase angle is:   0.56830344068589134     
 Cr.Cr.  0.69422988166155530     
 Ci.Ci.  0.30577011833844442     
     11       11    0.130706345D+00  0.3556700D+01 .592351D-02 .223394D-01
R:     0.722130894292069
HR:    0.095400973442881
 The phase angle is:   0.21000070526315121     
 Cr.Cr.  0.60582456843325594     
 Ci.Ci.  0.39417543156674345     
 The phase angle is:   0.48191835039338932     
 Cr.Cr.   8.7764585761758388E-003
 Ci.Ci.  0.99122354142382385     
     12       12    0.130639667D+00  0.3554886D+01 .137081D-01 .149776D-01
R:     0.721827050819146
HR:    0.094666296897257
 The phase angle is:   0.76438477533343629     
 Cr.Cr.  0.67763010756620212     
 Ci.Ci.  0.32236989243379838     
 The phase angle is:  -0.55834352238560947     
 Cr.Cr.  0.18746020993922785     
 Ci.Ci.  0.81253979006077182     
     13       13    0.130686582D+00  0.3556163D+01 .212387D-01 .130064D-01
R:     0.721417158314019
HR:    0.094465387822271
 The phase angle is:    6.5280789015708246E-002
 Cr.Cr.  0.74585811376797073     
 Ci.Ci.  0.25414188623202955     
     14       14    0.130637433D+00  0.3554825D+01 .448818D-02 .834722D-02
R:     0.721409929894239
HR:    0.094404293756392
 The phase angle is:  -0.66501463351142442     
 Cr.Cr.  0.79632112074670258     
 Ci.Ci.  0.20367887925329739     
 The phase angle is:   0.58887519618431428     
 Cr.Cr.  0.36867431624669406     
 Ci.Ci.  0.63132568375330589     
     15       15    0.130692835D+00  0.3556333D+01 .405777D-02 .621531D-02
R:     0.721305668463155
HR:    0.094312831504317
 The phase angle is:   -5.7417428086360453E-002
 Cr.Cr.  0.65242451676309055     
 Ci.Ci.  0.34757548323690945     
 The phase angle is:   0.63075754444704513     
 Cr.Cr.  0.66672962621619725     
 Ci.Ci.  0.33327037378380242     
     16       16    0.130656316D+00  0.3555339D+01 .346980D-02 .466093D-02
R:     0.721219328993297
HR:    0.094173149434562
 The phase angle is:  -0.59807604397452352     
 Cr.Cr.  0.59431612252363686     
 Ci.Ci.  0.40568387747636298     
 The phase angle is:  -0.73818537557357644     
 Cr.Cr.  0.25524071227233547     
 Ci.Ci.  0.74475928772766442     
     17       17    0.130450152D+00  0.3549729D+01 .281156D-02 .365017D-02
R:     0.721218055547343
HR:    0.094106702007500
 The phase angle is:   0.60330044568309360     
 Cr.Cr.  0.61372663700201546     
 Ci.Ci.  0.38627336299798465     
 The phase angle is:   0.27883919626462850     
 Cr.Cr.   8.0572874000099187E-002
 Ci.Ci.  0.91942712599990062     
 The phase angle is:   0.10449288929033211     
 Cr.Cr.  0.16665068473945949     
 Ci.Ci.  0.83334931526054057     
 The phase angle is:   0.49253995596447875     
 Cr.Cr.   9.3952030944399675E-002
 Ci.Ci.  0.90604796905560026     
     18       18    0.130447137D+00  0.3549647D+01 .587205D-02 .222499D-02
R:     0.721217943493342
HR:    0.094089312897647
 The phase angle is:    9.9140292052032009E-002
 Cr.Cr.  0.41442050385650714     
 Ci.Ci.  0.58557949614349236     
 The phase angle is:  -0.70230752704571697     
 Cr.Cr.  0.77850322581381393     
 Ci.Ci.  0.22149677418618563     
 The phase angle is:  -0.46484134810168193     
 Cr.Cr.  0.73487429371715873     
 Ci.Ci.  0.26512570628284088     
     19       19    0.130465344D+00  0.3550142D+01 .259958D-02 .157123D-02
R:     0.721213362423680
HR:    0.094084950288632
 The phase angle is:  -0.30039145607483397     
 Cr.Cr.  0.41117613901627315     
 Ci.Ci.  0.58882386098372674     
 The phase angle is:  -0.77068819901898511     
 Cr.Cr.  0.58638498645637160     
 Ci.Ci.  0.41361501354362867     
 The phase angle is:  -0.68059758246266877     
 Cr.Cr.   4.5522429895154771E-003
 Ci.Ci.  0.99544775701048438     
     20       20    0.130449301D+00  0.3549706D+01 .358493D-02 .107897D-02
R:     0.721195825664444
HR:    0.094088748226444
 The phase angle is:   0.29624996084130101     
 Cr.Cr.  0.28267886534545500     
 Ci.Ci.  0.71732113465454517     
 The phase angle is:   0.74904624725238367     
 Cr.Cr.  0.66651871251151706     
 Ci.Ci.  0.33348128748848332     
     21       21    0.130471210D+00  0.3550302D+01 .148674D-02 .818315D-03
R:     0.721194887115095
HR:    0.094091116758433
 The phase angle is:   0.36824629086428051     
 Cr.Cr.  0.76919444426295014     
 Ci.Ci.  0.23080555573705000     
 The phase angle is:   0.10436905766884869     
 Cr.Cr.  0.63247379240465396     
 Ci.Ci.  0.36752620759534610     
 The phase angle is:   0.51686286935640124     
 Cr.Cr.  0.90275151237983764     
 Ci.Ci.   9.7248487620162222E-002
     22       22    0.130477227D+00  0.3550466D+01 .434415D-03 .667733D-03
R:     0.721200104300974
HR:    0.094097915262396
 The phase angle is:   0.62857978400990322     
 Cr.Cr.  0.77696485993847852     
 Ci.Ci.  0.22303514006152125     
 The phase angle is:   0.13818650834748294     
 Cr.Cr.  0.61004281121572324     
 Ci.Ci.  0.38995718878427693     
     23       23    0.130477137D+00  0.3550463D+01 .618360D-04 .457038D-03
R:     0.721208601120572
HR:    0.094105047968447
 The phase angle is:   0.69443952987164881     
 Cr.Cr.  0.23212153018392129     
 Ci.Ci.  0.76787846981607843     
 The phase angle is:  -0.20694011442107868     
 Cr.Cr.  0.32099278432254508     
 Ci.Ci.  0.67900721567745503     
 The phase angle is:   0.41136515048918465     
 Cr.Cr.  0.13680940065051556     
 Ci.Ci.  0.86319059934948439     
 The phase angle is:   -1.0069535555831967E-002
 Cr.Cr.  0.99133255219287919     
 Ci.Ci.   8.6674478071207730E-003
     24       24    0.130482347D+00  0.3550605D+01 .879433D-04 .393402D-03
R:     0.721210674100878
HR:    0.094107147263207
 The phase angle is:  -0.52342818720482831     
 Cr.Cr.  0.23170562569875330     
 Ci.Ci.  0.76829437430124636     
 The phase angle is:  -0.63446920592515565     
 Cr.Cr.  0.26819924695893005     
 Ci.Ci.  0.73180075304107006     
 The phase angle is:   -3.5468795914650977E-002
 Cr.Cr.  0.26085965580762865     
 Ci.Ci.  0.73914034419237140     
 The phase angle is:   0.44903623154493960     
 Cr.Cr.  0.12178145705393183     
 Ci.Ci.  0.87821854294606794     
     25       25    0.130492509D+00  0.3550882D+01 .223045D-03 .231569D-03
R:     0.721212957549603
HR:    0.094110696227003
 The phase angle is:   -7.3334834266887014E-002
 Cr.Cr.  0.22556609035886893     
 Ci.Ci.  0.77443390964113112     
 The phase angle is:  -0.19979080033228139     
 Cr.Cr.  0.27700021456710083     
 Ci.Ci.  0.72299978543289956     
 The phase angle is:  -0.39932482739673819     
 Cr.Cr.  0.34348236725716191     
 Ci.Ci.  0.65651763274283792     
 The phase angle is:  -0.69169394989449473     
 Cr.Cr.  0.71279936513870568     
 Ci.Ci.  0.28720063486129410     
 The phase angle is:  -0.47819337195132455     
 Cr.Cr.   9.4972898667991645E-003
 Ci.Ci.  0.99050271013320090     
 The phase angle is:    5.8194917211658322E-002
 Cr.Cr.   1.9119709554948884E-002
 Ci.Ci.  0.98088029044505065     
     26       26    0.130486305D+00  0.3550713D+01 .137011D-03 .149570D-03
R:     0.721210180987713
HR:    0.094106758245920
 The phase angle is:  -0.78464812221100821     
 Cr.Cr.  0.82014697208718623     
 Ci.Ci.  0.17985302791281399     
 The phase angle is:   0.70296807432378328     
 Cr.Cr.  0.27682356883868547     
 Ci.Ci.  0.72317643116131458     
 The phase angle is:  -0.43693085873579457     
 Cr.Cr.  0.26439618878648558     
 Ci.Ci.  0.73560381121351437     
     27       27    0.130481788D+00  0.3550590D+01 .203101D-03 .114278D-03
R:     0.721210437999642
HR:    0.094105169144602
 The phase angle is:  -0.52917760397989200     
 Cr.Cr.  0.81641175658232601     
 Ci.Ci.  0.18358824341767443     
 The phase angle is:  -0.26935218261893529     
 Cr.Cr.  0.72955952730407136     
 Ci.Ci.  0.27044047269592852     
 The phase angle is:  -0.11108674211148335     
 Cr.Cr.  0.24698873006691519     
 Ci.Ci.  0.75301126993308465     
 The phase angle is:  -0.67565247642293791     
 Cr.Cr.   8.0338479440350719E-002
 Ci.Ci.  0.91966152055964956     
     28       28    0.130482753D+00  0.3550616D+01 .131401D-03 .644749D-04
R:     0.721211533137290
HR:    0.094105190026067
 The phase angle is:  -0.35794186939628697     
 Cr.Cr.  0.80586741871239842     
 Ci.Ci.  0.19413258128760119     
 The phase angle is:  -0.16845901332281432     
 Cr.Cr.  0.27230975576002631     
 Ci.Ci.  0.72769024423997364     
 The phase angle is:   0.31788908615199474     
 Cr.Cr.  0.26821594647898189     
 Ci.Ci.  0.73178405352101805     
 The phase angle is:  -0.45920242829415142     
 Cr.Cr.  0.98606811680574968     
 Ci.Ci.   1.3931883194250708E-002
     29       29    0.130482604D+00  0.3550612D+01 .107910D-03 .469748D-04
R:     0.721212401073973
HR:    0.094105027592544
 The phase angle is:  -0.64707187625281903     
 Cr.Cr.  0.19511272720451203     
 Ci.Ci.  0.80488727279548788     
 The phase angle is:   0.25562326906082755     
 Cr.Cr.  0.74084831480280045     
 Ci.Ci.  0.25915168519719933     
 The phase angle is:   0.10751383486197026     
 Cr.Cr.  0.27018642646321384     
 Ci.Ci.  0.72981357353678622     
     30       30    0.130482765D+00  0.3550617D+01 .148628D-04 .292806D-04
R:     0.721213690855233
HR:    0.094105898603615
 The phase angle is:  -0.30882360984335688     
 Cr.Cr.  0.80626902259982514     
 Ci.Ci.  0.19373097740017528     
 The phase angle is:  -0.64750584800898381     
 Cr.Cr.  0.74137330834699766     
 Ci.Ci.  0.25862669165300273     
 The phase angle is:  -0.41402339824632778     
 Cr.Cr.  0.74368930312329340     
 Ci.Ci.  0.25631069687670605     
 The phase angle is:  -0.65867937130989396     
 Cr.Cr.   1.7189310158332752E-002
 Ci.Ci.  0.98281068984166731     
 The phase angle is:  -0.24295105785858617     
 Cr.Cr.  0.23673626409955489     
 Ci.Ci.  0.76326373590044505     
 The phase angle is:  -0.30677941088878258     
 Cr.Cr.  0.93267326927671168     
 Ci.Ci.   6.7326730723288195E-002
 The phase angle is:   0.42672364477424413     
 Cr.Cr.   4.5425348757850918E-002
 Ci.Ci.  0.95457465124214880     
     31       31    0.130482947D+00  0.3550621D+01 .277448D-04 .210662D-04
R:     0.721214198846871
HR:    0.094105941600953
 The phase angle is:  -0.31420938979938118     
 Cr.Cr.  0.19071199375644485     
 Ci.Ci.  0.80928800624355524     
 The phase angle is:   0.34924698977345198     
 Cr.Cr.  0.74019347866960505     
 Ci.Ci.  0.25980652133039506     
 The phase angle is:   0.57314053174296264     
 Cr.Cr.  0.25188901805097541     
 Ci.Ci.  0.74811098194902459     
 The phase angle is:   0.54320944561226159     
 Cr.Cr.  0.63336463246202757     
 Ci.Ci.  0.36663536753797255     
     32       32    0.130482983D+00  0.3550622D+01 .332249D-04 .159791D-04
R:     0.721214458834106
HR:    0.094106049559769
 The phase angle is:    8.0723057134610646E-003
 Cr.Cr.  0.80342654658282642     
 Ci.Ci.  0.19657345341717350     
 The phase angle is:   0.66754643791084090     
 Cr.Cr.  0.26090499732546585     
 Ci.Ci.  0.73909500267453410     
 The phase angle is:  -0.63655315041555105     
 Cr.Cr.  0.26456789222876703     
 Ci.Ci.  0.73543210777123313     
 The phase angle is:   0.14529938618260485     
 Cr.Cr.  0.73821670483930624     
 Ci.Ci.  0.26178329516069393     
     33       33    0.130482745D+00  0.3550616D+01 .192360D-04 .121749D-04
R:     0.721214575140488
HR:    0.094106037366844
 The phase angle is:  -0.28448814147304075     
 Cr.Cr.  0.20782843962605357     
 Ci.Ci.  0.79217156037394609     
 The phase angle is:  -0.58376241438959942     
 Cr.Cr.  0.74066752499476385     
 Ci.Ci.  0.25933247500523615     
 The phase angle is:   0.22937972865810780     
 Cr.Cr.  0.26023715838529987     
 Ci.Ci.  0.73976284161469974     
 The phase angle is:  -0.36942026354396179     
 Cr.Cr.  0.17106886391401824     
 Ci.Ci.  0.82893113608598168     
     34       34    0.130482664D+00  0.3550614D+01 .262820D-05 .860800D-05
  Converged eigenvalue:   0.13048266394756342       a.u.
   Total EOMEE-CC3 electronic energy   -1835.875039446611 a.u.
  SCF eigenvalue ordering used in list below. 
--------------------------------------------------------------------------------
    I    j    A    b
--------------------------------------------------------------------------------
   47    0   63    0   0.5731794183 AA  
   47    0   64    0  -0.2673872671 AA  
   47    0   71    0  -0.1239713953 AA  
   47    0   70    0   0.0768134895 AA  
   45    0   50    0   0.0701095872 AA  
   46    0   51    0  -0.0701092754 AA  
   47    0   92    0   0.0493936149 AA  
   47    0   59    0   0.0432062911 AA  
   48    0   60    0  -0.0432055985 AA  
   46   47   51   63  -0.0428290744 ABAB
   47   46   63   51  -0.0428290744 ABAB
   45   47   50   63  -0.0359391662 ABAB
   47   45   63   50  -0.0359391662 ABAB
   47    0   97    0  -0.0356351161 AA  
   47    0   49    0  -0.0354376073 AA  
--------------------------------------------------------------------------------
  Solution of   1 roots required   34 iterations.
 @CHECKOUT-I, Total execution time (CPU/WALL):   827599.47/   25937.41 seconds.
--executable xvee finished with status     0 in    25937.53 seconds (walltime).
  The final electronic energy is     -1835.875039446610799 a.u. 
  This computation required                        36004.96 seconds (walltime).
Attempting to clean /scratch/jearias... save is False. TIME: Fri 13 Jun 2025 10:33:48 PM PDT
Total of 36005 seconds elapsed for this process.
