 --invoking executable--
/opt/cfour/2.1/bin/xjoda


   *************************************************************************
         <<<     CCCCCC     CCCCCC   |||     CCCCCC     CCCCCC   >>>
       <<<      CCC        CCC       |||    CCC        CCC         >>>
      <<<      CCC        CCC        |||   CCC        CCC            >>>
    <<<        CCC        CCC        |||   CCC        CCC              >>>
      <<<      CCC        CCC        |||   CCC        CCC            >>>
       <<<      CCC        CCC       |||    CCC        CCC         >>>
         <<<     CCCCCC     CCCCCC   |||     CCCCCC     CCCCCC   >>>
   *************************************************************************

     ****************************************************************
     * CFOUR Coupled-Cluster techniques for Computational Chemistry *
     ****************************************************************


   Department of Chemistry                Institut fuer Physikalische Chemie
   University of Florida                  Universitaet Mainz
   Gainesville, FL 32611, USA             D-55099 Mainz, Germany

   Department of Chemistry                Fakultaet fuer Chemie und Biowiss.
   Johns Hopkins University               Karlsruher Institut fuer Technologie
   Baltimore, MD 21218, USA               D-76131 Karlsruhe, Germany

   Department of Chemistry                Department of Physical Chemistry
   Southern Methodist University          Eotvos Lorand University
   Dallas, TX 75275, USA                  H-1053 Budapest, Hungary


                       Version 2.1

                     node016                                           
                     Thu 28 Aug 2025 10:40:17 PM PDT                   
                     integer*8 version is running

********************************************************************************
*                          Input from ZMAT file                                *
********************************************************************************
Optimization on FeCO4 (C2v), S0                                                 
Fe                                                                              
C 1 rFeCAx*                                                                     
C 1 rFeCEq* 2 aCAxCEq*                                                          
C 1 rFeCEq* 2 aCAxCEq* 3 dC                                                     
C 1 rFeCEq* 2 aCAxCEq* 3 dnC                                                    
O 1 rFeOAx* 3 aCAxCEq* 2 d0                                                     
O 1 rFeOEq* 2 aCAxOEq* 3 d0                                                     
O 1 rFeOEq* 2 aCAxOEq* 4 d0                                                     
O 1 rFeOEq* 2 aCAxOEq* 5 d0                                                     
                                                                                
rFeCAx  =    1.766187962670023                                                  
rFeCEq  =    1.848613849159921                                                  
rFeOAx  =    2.926573392448320                                                  
rFeOEq  =    3.005744198822011                                                  
aCAxCEq =   91.938235663845120                                                  
aCAxOEq =   91.040423263180415                                                  
d0      =    0.00000                                                            
dnC     = -120.00000                                                            
dC      =  120.0000                                                             
                                                                                
*ACES2(CALC = CCSD(T)                                                           
      BASIS = SPECIAL                                                           
FROZEN_CORE = ON                                                                
   SCF_CONV = 10                                                                
    CC_CONV = 8                                                                 
 LINEQ_CONV = 8                                                                 
   SCF_MAXCYC = 500                                                             
    CC_MAXCYC = 500                                                             
 LINEQ_MAXCYC = 500                                                             
       MEMORY = 32                                                              
     MEM_UNIT = GB)                                                             
                                                                                
Fe:aug-cc-pVDZ                                                                  
C:aug-cc-pVDZ                                                                   
C:aug-cc-pVDZ                                                                   
C:aug-cc-pVDZ                                                                   
C:aug-cc-pVDZ                                                                   
O:aug-cc-pVDZ                                                                   
O:aug-cc-pVDZ                                                                   
O:aug-cc-pVDZ                                                                   
O:aug-cc-pVDZ                                                                   
                                                                                
********************************************************************************
    -------------------------------------------------------------------
                    CFOUR Control Parameters 
    -------------------------------------------------------------------
        External           Internal           Value            Units
          Name               Name
    -------------------------------------------------------------------
       ABCDTYPE             IABCDT         STANDARD    [  0]    ***   
       ANHARMONIC           IANHAR         OFF         [  0]    ***   
       ANH_ALGORIT          IANALG         STANDARD    [  0]    ***   
       ANH_DERIVAT          IANDER         SECOND      [  1]    ***   
       ANH_MODE             ANHMOD         VIBRATION   [  0]    ***   
       ANH_STEPSIZ          ICUBST             50000          x 10-6  
       ANH_SYMMETR          IANHSM         ABELIAN     [  0]    ***   
       AO_LADDERS           IAOLAD         SINGLEPASS  [  1]    ***   
       AV_SCF               IAVSCF         OFF         [  0]    ***   
       BASIS                IBASIS         SPECIAL     [  0]    ***   
       BOTHVECTORS          BOTHVC         OFF         [  0]    ***   
       BOX_POTENT           IPIAB          OFF         [  0]    ***   
       BREIT                IBREIT         OFF         [  0]    ***   
       BRUCK_CONV           IBRTOL          10D-  4             ***   
       BRUECKNER            IBRKNR         OFF         [  0]    ***   
       BUFFERSIZE           IBUFFS              4096            ***   
       CACHE_RECS           ICHREC             10               ***   
       CALCLEVEL            ICLLVL         CCSD(T)     [ 22]    ***   
       CCORBOPT             ICCORB         OFF         [  0]  x 0.01  
       CC_CONV              ICCCNV          10D-  8             ***   
       CC_EXPORDER          ICCEOR              5               ***   
       CC_EXTRAPOL          ICCEXT         DIIS        [  1]    ***   
       CC_GUESS             ICCGES         MP2         [  0]    ***   
       CC_MAXCYC            ICCCYC            500              cycles 
       CC_PROGRAM           ICCPRO         VCC         [  0]    ***   
       CHARGE               ICHRGE              0               ***   
       CHOLESKY             ICHOLE         OFF         [  0]    ***   
       CIS_CONV             ICISTL              5               ***   
       COMM_SIZE            IPSIZE            ***               ***   
       CONSTANT             ICONST         OLD         [  1]    ***   
       CONTINUUM            ICONTU         NONE        [  0]    ***   
       CONTRACTION          ICNTYP         GENERAL     [  1]    ***   
       COORDINATES          ICOORD         INTERNAL    [  0]    ***   
       CPHF_CONVER          ICPHFT          10D- 16             ***   
       CPHF_MAXCYC          ICPHFC             64              cycles 
       CUBIC                ICUBIC         OFF         [  0]    ***   
       CURVILINEAR          ICURVY         OFF         [  0]    ***   
       DBOC                 IDBOC          OFF         [  0]    ***   
       DCT                  IDCT           OFF         [  0]    ***   
       DERIV_LEV            IDRLVL         FIRST       [  1]    ***   
       DEVMEM_SIZE          IDVMEM         *********           MByte  
       DIAG_MRCC            IEOMST          10D-  0             ***   
       DIFF_TYPE            IDIFTY         RELAXED     [  0]    ***   
       DIRECT               IDIRCT         OFF         [  0]    ***   
       DROPMO               IDRPMO      NONE         
       ECP                  IECP           OFF         [  0]    ***   
       EIGENVECTOR          IVEC                1               ***   
       EL_ANHARM            IELANH         OFF         [  0]    ***   
       EOMFOLLOW            IEOMSR         ENERGY      [  0]    ***   
       EOMIP                IEOMIP         OFF         [  0]    ***   
       EOMLEVEL             HBARFM         SAME        [  0]    ***   
       EOM_MRCC             IMRCCE         NEW         [  1]    ***   
       EOM_NONIT            EOMNON         OFF         [  0]    ***   
       EOM_NSING            IEOMSI          10D-  0             ***   
       EOM_NSTATES          IMRCCD         DAVIDSON    [  0]    ***   
       EOM_NTRIP            IEOMTR          10D-  0             ***   
       EOM_ORDER            IEXORD         ENERGY      [  0]    ***   
       EOM_PROPSTA          IEOMST              0               ***   
       ESTATE_CONV          IEXTOL          10D-  5             ***   
       ESTATE_DIAG          IEXDIG         ITERATIVE   [  0]    ***   
       ESTATE_LOCK          IESLOC         ON          [  1]    ***   
       ESTATE_MAXC          IEXMXC             40               ***   
       ESTATE_PROP          IEXPRP         OFF         [  0]    ***   
       EVAL_HESS            IRECAL              0            # of cyc.
       EXCITATION           IEXCIT              0               ***   
       EXCITE               IEXCIT         NONE        [  0]    ***   
       EXTERN_POT           IEXPOT         OFF         [  0]    ***   
       FCGRADNEW            IFCGNW         ON          [  1]    ***   
       FC_FIELD             IFINFC              0             x 10-6  
       FD_CALTYPE           IFDCAL         GRADONLY    [  0]    ***   
       FD_PROJECT           IFDPRJ         OFF         [  1]    ***   
       FD_STEPSIZE          IDISFD              0            10-4 bohr
       FD_USEGROUP          IFDGRP         FULL        [  0]    ***   
       FILE_RECSIZ          IFLREC              4096           words  
       FINITE_PERT          IFIPER              0             x 10-6  
       FIXGEOM              IFIXGM         OFF         [  0]    ***   
       FOCK                 IFOCK          AO          [  1]    ***   
       FREQ_ALGORI          IVIALG         STANDARD    [  0]    ***   
       FROZEN_CORE          IFROCO         ON          [  1]    ***   
       GAMMA_ABCD           IGABCD         STORE       [  0]    ***   
       GAMMA_ABCI           IGABCI         STORE       [  0]    ***   
       GENBAS_1             IGNBS1              0               ***   
       GENBAS_2             IGNBS2              0               ***   
       GENBAS_3             IGNBS3              0               ***   
       GENBAS_4             IGNBS4              0               ***   
       GEO_CONV             ICONTL              5              H/bohr 
       GEO_MAXCYC           IOPTCY             50               ***   
       GEO_MAXSTEP          IMXSTP            300            millibohr
       GEO_METHOD           INR            NR          [  0]    ***   
       GIAO                 IGIAO          OFF         [  1]    ***   
       GIMIC                IGIMIC         OFF         [  0]    ***   
       GRID                 IGRID          OFF         [  0]    ***   
       GRID_ALGO            IGALGO         SERIAL      [  0]    ***   
       GUESS                IGUESS         MOREAD      [  0]    ***   
       HBAR                 IHBAR          OFF         [  0]    ***   
       HESS_TYPE            IHESTP         SCF         [  0]    ***   
       HF2_FILE             IHF2Fl         USE         [  1]    ***   
       HFSTABILITY          ISTABL         OFF         [  0]    ***   
       INCORE               INCORE         OFF         [  0]    ***   
       INPUT_MRCC           IMRCC          ON          [  1]    ***   
       INTEGRALS            INTTYP         VMOL        [  1]    ***   
       JODA_PRINT           IJPRNT              0               ***   
       KEYWORD_OUT          IDMPKW         NO          [  0]    ***   
       LINDEP_TOL           ILINDP              8               ***   
       LINEQ_CONV           IZTACN          10D-  8           cycles  
       LINEQ_EXPOR          ILMAXD              5               ***   
       LINEQ_MAXCY          ILMAXC            500               ***   
       LINEQ_TYPE           ILTYPE         DIIS        [  1]    ***   
       LOCK_ORBOCC          ILOCOC         OFF         [  0]    ***   
       MEMORY_SIZE          IMEMSZ         *********           words  
       MEM_UNIT             IMEMU          GB          [  3]    ***   
       MRCC                 IMRCCC         OFF         [  0]    ***   
       MULTIPLICTY          IMULTP              1               ***   
       NACOUPLING           IVCOUP         OFF         [  0]    ***   
       NEGEVAL              IDIE           ABORT       [  0]    ***   
       NEWNORM              INEWNO         OFF         [  0]    ***   
       NON-HF               INONHF         OFF         [  0]    ***   
       NTOP_TAMP            ITOPT2             15               ***   
       NUC_MODEL            INUCMO         POINT       [  0]    ***   
       OCCUPATION           IOCCU   ESTIMATED BY SCF 
       OPEN-SHELL           IOPEN          SPIN-ORBITAL[  0]    ***   
       OPTVIB               IOPTVB         OFF         [  0]    ***   
       ORBITALS             IORBTP         STANDARD    [  0]    ***   
       PARALLEL             IPARAL         ON          [  1]    ***   
       PARA_INT             IPINTS         ON          [  1]    ***   
       PARA_PRINT           IPPRIN              0               ***   
       PERT_ORB             IPTORB         CANONICAL   [  1]    ***   
       POINTS               IGRDFD              0               ***   
       PRINT                IPRNT               0               ***   
       PROPS                IPROPS         OFF         [  0]    ***   
       PROP_INTEGR          IINTYP         INTERNAL    [  0]    ***   
       PSI                  IPSI           OFF         [  0]    ***   
       QC_ALG               IQCALG         FLM         [  0]    ***   
       QC_LINALG            IQCLIN         TRIDIAG     [  2]    ***   
       QC_MAXCYC            IQCMAX          10D-100           cycles  
       QC_MAXSCFCY          IQCMSC          10D- 15           cycles  
       QC_RTRUST            IQCRTR          10D-  0           x 10-3  
       QC_SKIPSCF           IQCSKI         OFF         [  0]    ***   
       QC_START             IQCSTA          10D-  1             ***   
       QRHFGUESS            IQGUES         OFF         [  0]    ***   
       QUARTIC              IQUART         OFF         [  0]    ***   
       RAMAN_INT            IRAMIN         OFF         [  0]    ***   
       RAMAN_ORB            IRAMRE         UNRELAXED   [  0]    ***   
       RDO                  IRDOFM         ON          [  1]    ***   
       REDUCE_REPR          REDREP         Ir          [  0]    ***   
       REFERENCE            IREFNC         RHF         [  0]    ***   
       RELATIVIST           IRELAT         OFF         [  0]    ***   
       RELAX_DENS           IRDENS         ON          [  1]    ***   
       RESET_FLAGS          IRESET         OFF         [  0]    ***   
       RESTART_CC           ICCRES         OFF         [  0]    ***   
       ROT_EVEC             ROTVEC              0               ***   
       SAVE_INTS            ISVINT         OFF         [  0]    ***   
       SCALE_ON             ISTCRT              0               ***   
       SCF_CONV             ISCFCV          10D- 10             ***   
       SCF_DAMPING          IDAMP               0             x 10-3  
       SCF_EXPORDE          IRPPOR              6               ***   
       SCF_EXPSTAR          IRPPLS              8               ***   
       SCF_EXTRAPO          IRPP           ON          [  1]    ***   
       SCF_MAXCYC           ISCFCY            500              cycles 
       SCF_NOSTOP           ISCFST         OFF         [  0]    ***   
       SCF_PRINT            ISCFPR              0               ***   
       SCF_PROG             ISCFPR         SCF         [  0]    ***   
       SD_FIELD             IFINSD              0             x 10-6  
       SOPERT               IPERSO         OFF         [  0]    ***   
       SPHERICAL            IDFGHI         ON          [  1]    ***   
       SPINORBIT            ISOCAL         OFF         [  0]    ***   
       SPINROTATIO          ISRCON         OFF         [  0]    ***   
       SPIN_FLIP            ISPFLP         OFF         [  0]    ***   
       SPIN_ORBIT           ISPORB         OFF         [  0]    ***   
       SPIN_SCAL            ISCSMP         OFF         [  0]    ***   
       STEEPSCALE           ISTPSC              1000          x 10-3  
       SUBGROUP             ISUBGP         DEFAULT     [  0]    ***   
       SUBGRPAXIS           ISBXYZ         X           [  0]    ***   
       SYMMETRY             ISYM           ON          [  0]    ***   
       SYM_CHECK            ISYMCK         OVERRIDE    [  1]    ***   
       T3_EXTRAPOL          IT3EXT         OFF         [  0]    ***   
       T4_EXTRAPOL          IT4EXP         OFF         [  0]    ***   
       TAMP_SUM             IEVERY              5               ***   
       TESTSUITE            ITESTS         OFF         [  0]    ***   
       THERMOCH             ITHERM         OFF         [  0]    ***   
       TOL_CHOLESK          ITOLCH          10D-  4             ***   
       TRANGRAD             IRESRM         OFF         [  0]    ***   
       TRANS_INV            ITRAIN         USE         [  0]    ***   
       TREAT_PERT           ITREAT         SIMULTANEOUS[  0]    ***   
       TRIP_ALGORI          ITRALG         NORMAL      [  0]    ***   
       UIJ_THRESHO          IUIJTH              1               ***   
       UNITS                IUNITS         ANGSTROM    [  0]    ***   
       UNOS                 IUNOS          OFF         [  0]    ***   
       UPDATE_HESS          IHUPDT         ON          [  1]    ***   
       VIBPHASE             ISETPH         STANDARD    [  0]    ***   
       VIBRATION            IVIB           NO          [  0]    ***   
       VIB_ALGORIT          IGEALG         STANDARD    [  0]    ***   
       VNATORB              IVNORB         OFF         [  0]    ***   
       VTRAN                IVTRAN         FULL/PARTIAL[  0]    ***   
       XFIELD               IXEFLD              0             x 10-6  
       XFORM_TOL            IXFTOL          10D- 11             ***   
       YFIELD               IYEFLD              0             x 10-6  
       ZFIELD               IZEFLD              0             x 10-6  
       ZSCALE_EXP           IZEXPS         OFF         [  0]    ***   
    -------------------------------------------------------------------
   9 entries found in Z-matrix 
   Job Title : Optimization on FeCO4 (C2v), S0                                                 
   There are  9 unique internal coordinates.
   Of these,  6 will be optimized.
   User supplied Z-matrix: 
--------------------------------------------------------------------------------
       SYMBOL    BOND      LENGTH    ANGLE     ANGLE     DIHED     ANGLE
                  TO      (ANGST)    WRT      (DEG)      WRT      (DEG)
--------------------------------------------------------------------------------
        Fe   
        C          1         rFeCA
        C          1         rFeCE      2        aCAxC
        C          1         rFeCE      2        aCAxC      3        dC   
        C          1         rFeCE      2        aCAxC      3        dnC  
        O          1         rFeOA      3        aCAxC      2        d0   
        O          1         rFeOE      2        aCAxO      3        d0   
        O          1         rFeOE      2        aCAxO      4        d0   
        O          1         rFeOE      2        aCAxO      5        d0   
                  *Initial values for internal coordinates* 
                      Name             Value
                        rFeCA           1.7661879627
                        rFeCE           1.8486138492
                        aCAxC          91.9382356638
                        dC            120.0000000000
                        dnC          -120.0000000000
                        rFeOA           2.9265733924
                        d0              0.0000000000
                        rFeOE           3.0057441988
                        aCAxO          91.0404232632
--------------------------------------------------------------------------------
  filter applied 
  filter applied 
   Rotational constants (in cm-1): 
          0.0303053177             0.0392858263             0.0392858263
   Rotational constants (in MHz): 
        908.5306970135          1177.7596080323          1177.7596080323
********************************************************************************
   The full molecular point group is C3v .
   The largest Abelian subgroup of the full molecular point group is C s .
   The computational point group is C s .
********************************************************************************
--------------------------------------------------------------------------------
   Analysis of internal coordinates specified by Z-matrix 
--------------------------------------------------------------------------------
   *The nuclear repulsion energy is  578.548046005878746 a.u.
  *ERROR* Parameters 11 and  3 are not equivalent [both called aCAxC].
  *ERROR* Parameters 11 and  5 are not equivalent [both called aCAxC].
  *ERROR* Parameters 11 and  8 are not equivalent [both called aCAxC].
  *WARNING* Parameter aCAxC[ 11] cannot have a nonzero derivative,
    but is being optimized.  Reconstruction of Z-matrix recommended.
   *There are   6 degrees of freedom within the tot. symm. molecular subspace.
   *Z-matrix requests optimization of   6 coordinates.
   *The following   6 parameters can have non-zero 
    derivatives within the totally symmetric subspace:
             rFeCE[ 2]  rFeCA[ 1]  aCAxO[14]  aCAxC[ 8]  rFeOE[19]  rFeOA[10]
   *The following   6 parameters are to be optimized:
             rFeCA[ 1]  rFeCE[ 2]  aCAxC[ 3]  rFeOA[10]  rFeOE[13]  aCAxO[14]

--------------------------------------------------------------------------------


 ----------------------------------------------------------------
         Coordinates used in calculation (QCOMP) 
 ----------------------------------------------------------------
 Z-matrix   Atomic            Coordinates (in bohr)
  Symbol    Number           X              Y              Z
 ----------------------------------------------------------------
     FE       26        -0.71052471    -0.00000000     0.00000000
     C         6         2.62708753    -0.00000000     0.00000000
     C         6        -0.82867812     1.74568797    -3.02362026
     C         6        -0.82867812    -3.49137594    -0.00000000
     C         6        -0.82867812     1.74568797     3.02362026
     O         8         4.81989865    -0.00000000     0.00000000
     O         8        -0.81366172     2.83954904    -4.91824321
     O         8        -0.81366172    -5.67909808     0.00000000
     O         8        -0.81366172     2.83954904     4.91824321
 ----------------------------------------------------------------

   Interatomic distance matrix (Angstroms) 

                 FE            C             C             C             C    
                [ 1]        [ 2]        [ 3]        [ 4]        [ 5]
  FE   [ 1]     0.00000
  C    [ 2]     1.76619     0.00000
  C    [ 3]     1.84861     2.59955     0.00000
  C    [ 4]     1.84861     2.59955     3.20006     0.00000
  C    [ 5]     1.84861     2.59955     3.20006     3.20006     0.00000
  O    [ 6]     2.92657     1.16039     3.51400     3.51400     3.51400
  O    [ 7]     3.00574     3.51379     1.15772     4.24234     4.24234
  O    [ 8]     3.00574     3.51379     4.24234     1.15772     4.24234
  O    [ 9]     3.00574     3.51379     4.24234     4.24234     1.15772

                 O             O             O             O    
                [ 6]        [ 7]        [ 8]        [ 9]
  O    [ 6]     0.00000
  O    [ 7]     4.23306     0.00000
  O    [ 8]     4.23306     5.20524     0.00000
  O    [ 9]     4.23306     5.20524     5.20524     0.00000
 rotcon2
   Rotational constants (in cm-1): 
          0.0303053177             0.0392858263             0.0392858263
   Rotational constants (in MHz): 
        908.5306970135          1177.7596080323          1177.7596080323
  ECPDATA file not present.   Using default ECPDATA. 
  There are  17 frozen-core orbitals.
  There are  243 basis functions.
 @CHECKOUT-I, Total execution time (CPU/WALL):        1.60/       0.51 seconds.
--executable xjoda finished with status     0 in        0.56 seconds (walltime).
 --invoking executable--
/opt/cfour/2.1/bin/xvmol
 SERIAL VERSION OF MOLECULE STARTED
********************************************************************************
                    INPUT FROM MOL FILE
********************************************************************************
INTGRL        1    0    1    0    0    0    0    0    0                         
         *** CFOUR Program System (Release V0.1) ***                            
Optimization on FeCO4 (C2v), S0                                                 
    7    1 Z          0.10E-08              0    0                              
   9999.00      3.00                                                            
         26.00000000    1    4    1    1    1    1                              
FE#1  -0.710524706982202  -0.000000000000000   0.000000000000000                
   21    7                                                                      
   4316265.0000000000        8.0488029999999998E-006  -4.1559539999999997E-006  
   646342.40000000002        6.2583059999999998E-005  -3.2314010000000003E-005  
   147089.70000000001        3.2902389999999999E-004  -1.6995250000000000E-004  
   41661.519999999997        1.3873550000000001E-003  -7.1713690000000004E-004  
   13590.770000000000        5.0232560000000002E-003  -2.6036250000000000E-003  
   4905.7500000000000        1.6101399999999998E-002  -8.3991090000000001E-003  
   1912.7460000000001        4.5900339999999998E-002  -2.4341089999999999E-002  
   792.60429999999997       0.11361540000000001       -6.2519480000000002E-002  
   344.80650000000003       0.22838690000000000      -0.13659289999999999       
   155.89990000000000       0.32211590000000001      -0.23127070000000000       
   72.230909999999994       0.23836610000000000      -0.23837340000000001       
   32.725059999999999        7.4046669999999995E-002   3.1238370000000001E-002  
   15.667619999999999        9.2141970000000004E-002  0.50868179999999996      -
   7.5034830000000001        9.3397900000000006E-002  0.49876949999999998      -
   3.3122229999999999        1.5739650000000001E-002   9.0335520000000002E-002  
   1.5584709999999999       -4.1866819999999998E-004  -6.0053370000000003E-003  
  0.68391400000000002        5.3763179999999999E-005   2.3124539999999999E-004  
  0.14675700000000000       -3.8166539999999997E-005  -5.6436799999999999E-004  
   7.0583000000000007E-002   4.3196030000000000E-005   4.9922599999999997E-004  
   3.1448999999999998E-002  -3.4010190000000000E-006  -1.0152930000000000E-004  
   1.4010000000000000E-002   0.0000000000000000        0.0000000000000000       
   17    6                                                                      
   17745.689999999999        4.1000000000000000E-005  -1.5000000000000000E-005  
   4200.7209999999995        3.6900000000000002E-004  -1.2999999999999999E-004  
   1364.4290000000001        2.1289999999999998E-003  -7.5100000000000004E-004  
   522.08060000000000        9.3690000000000006E-003  -3.3289999999999999E-003  
   221.45949999999999        3.3097000000000001E-002  -1.1912000000000001E-002  
   100.90960000000000        9.4431000000000001E-002  -3.4932999999999999E-002  
   48.401150000000001       0.20807700000000001       -7.9989000000000005E-002  
   23.985360000000000       0.33233299999999999      -0.13463600000000001       
   12.182499999999999       0.33298699999999998      -0.13859800000000000       
   6.2422979999999999       0.15684300000000001        3.0277999999999999E-002  
   3.1109439999999999        2.1548999999999999E-002  0.33321600000000001      -
   1.5099579999999999       -2.0950000000000001E-003  0.45615299999999998      -
  0.71084499999999995       -1.7390000000000001E-003  0.28505100000000000      -
  0.27318999999999999       -2.9999999999999997E-004   4.6143999999999998E-002  
  0.10423300000000001        2.9000000000000000E-005  -3.2490000000000002E-003  
   3.8290999999999999E-002  -1.1000000000000000E-005   1.3569999999999999E-003  
   1.4069999999999999E-002   0.0000000000000000        0.0000000000000000       
    9    4                                                                      
   113.34399999999999        3.5300000000000002E-003  -3.8899999999999998E-003  
   33.641399999999997        2.5784000000000001E-002  -2.8441999999999999E-002  
   12.331000000000000        9.9118999999999999E-002 -0.11242900000000000       
   4.9947800000000004       0.23907300000000001      -0.27425699999999997       
   2.0728000000000000       0.35719899999999999      -0.31554599999999999       
  0.83075299999999996       0.36218800000000001        5.7109000000000000E-002  
  0.30917800000000001       0.23646100000000000       0.56360399999999999       
  0.10013000000000000        6.0117999999999998E-002  0.38463700000000001       
   3.2430000000000000E-002   0.0000000000000000        0.0000000000000000       
    3    2                                                                      
   3.2242999999999999       0.42224899999999999        0.0000000000000000       
  0.77580000000000005       0.77146800000000004        0.0000000000000000       
  0.27489999999999998        0.0000000000000000        1.0000000000000000       
          6.00000000    1    3    1    1    1                                   
C #2   2.627087526559316  -0.000000000000000   0.000000000000000                
   10    4                                                                      
   6665.0000000000000        6.9200000000000002E-004  -1.4600000000000000E-004  
   1000.0000000000000        5.3290000000000004E-003  -1.1540000000000001E-003  
   228.00000000000000        2.7077000000000000E-002  -5.7250000000000001E-003  
   64.709999999999994       0.10171800000000000       -2.3311999999999999E-002  
   21.059999999999999       0.27473999999999998       -6.3954999999999998E-002  
   7.4950000000000001       0.44856400000000002      -0.14998100000000000       
   2.7970000000000002       0.28507399999999999      -0.12726199999999999       
  0.52149999999999996        1.5204000000000001E-002  0.54452900000000004       
  0.15959999999999999       -3.1909999999999998E-003  0.58049600000000001       
   4.6899999999999997E-002   0.0000000000000000        0.0000000000000000       
    5    3                                                                      
   9.4390000000000001        3.8108999999999997E-002   0.0000000000000000       
   2.0019999999999998       0.20948000000000000        0.0000000000000000       
  0.54559999999999997       0.50855700000000004        0.0000000000000000       
  0.15170000000000000       0.46884199999999998        1.0000000000000000       
   4.0410000000000001E-002   0.0000000000000000        0.0000000000000000       
    2    2                                                                      
  0.55000000000000004        1.0000000000000000        0.0000000000000000       
  0.15100000000000000        0.0000000000000000        1.0000000000000000       
          6.00000000    1    3    1    1    1                                   
C #3  -0.828678120359226   1.745687972349393  -3.023620262271042                
   10    4                                                                      
   6665.0000000000000        6.9200000000000002E-004  -1.4600000000000000E-004  
   1000.0000000000000        5.3290000000000004E-003  -1.1540000000000001E-003  
   228.00000000000000        2.7077000000000000E-002  -5.7250000000000001E-003  
   64.709999999999994       0.10171800000000000       -2.3311999999999999E-002  
   21.059999999999999       0.27473999999999998       -6.3954999999999998E-002  
   7.4950000000000001       0.44856400000000002      -0.14998100000000000       
   2.7970000000000002       0.28507399999999999      -0.12726199999999999       
  0.52149999999999996        1.5204000000000001E-002  0.54452900000000004       
  0.15959999999999999       -3.1909999999999998E-003  0.58049600000000001       
   4.6899999999999997E-002   0.0000000000000000        0.0000000000000000       
    5    3                                                                      
   9.4390000000000001        3.8108999999999997E-002   0.0000000000000000       
   2.0019999999999998       0.20948000000000000        0.0000000000000000       
  0.54559999999999997       0.50855700000000004        0.0000000000000000       
  0.15170000000000000       0.46884199999999998        1.0000000000000000       
   4.0410000000000001E-002   0.0000000000000000        0.0000000000000000       
    2    2                                                                      
  0.55000000000000004        1.0000000000000000        0.0000000000000000       
  0.15100000000000000        0.0000000000000000        1.0000000000000000       
          6.00000000    1    3    1    1    1                                   
C #4  -0.828678120359226  -3.491375944698786  -0.000000000000000                
   10    4                                                                      
   6665.0000000000000        6.9200000000000002E-004  -1.4600000000000000E-004  
   1000.0000000000000        5.3290000000000004E-003  -1.1540000000000001E-003  
   228.00000000000000        2.7077000000000000E-002  -5.7250000000000001E-003  
   64.709999999999994       0.10171800000000000       -2.3311999999999999E-002  
   21.059999999999999       0.27473999999999998       -6.3954999999999998E-002  
   7.4950000000000001       0.44856400000000002      -0.14998100000000000       
   2.7970000000000002       0.28507399999999999      -0.12726199999999999       
  0.52149999999999996        1.5204000000000001E-002  0.54452900000000004       
  0.15959999999999999       -3.1909999999999998E-003  0.58049600000000001       
   4.6899999999999997E-002   0.0000000000000000        0.0000000000000000       
    5    3                                                                      
   9.4390000000000001        3.8108999999999997E-002   0.0000000000000000       
   2.0019999999999998       0.20948000000000000        0.0000000000000000       
  0.54559999999999997       0.50855700000000004        0.0000000000000000       
  0.15170000000000000       0.46884199999999998        1.0000000000000000       
   4.0410000000000001E-002   0.0000000000000000        0.0000000000000000       
    2    2                                                                      
  0.55000000000000004        1.0000000000000000        0.0000000000000000       
  0.15100000000000000        0.0000000000000000        1.0000000000000000       
          8.00000000    1    3    1    1    1                                   
O #5   4.819898647407699  -0.000000000000000   0.000000000000000                
   10    4                                                                      
   11720.000000000000        7.1000000000000002E-004  -1.6000000000000001E-004  
   1759.0000000000000        5.4700000000000000E-003  -1.2630000000000000E-003  
   400.80000000000001        2.7837000000000001E-002  -6.2670000000000000E-003  
   113.70000000000000       0.10480000000000000       -2.5715999999999999E-002  
   37.030000000000001       0.28306199999999998       -7.0924000000000001E-002  
   13.270000000000000       0.44871899999999998      -0.16541100000000000       
   5.0250000000000004       0.27095200000000003      -0.11695500000000000       
   1.0129999999999999        1.5458000000000000E-002  0.55736799999999997       
  0.30230000000000001       -2.5850000000000001E-003  0.57275900000000002       
   7.8960000000000002E-002   0.0000000000000000        0.0000000000000000       
    5    3                                                                      
   17.699999999999999        4.3018000000000001E-002   0.0000000000000000       
   3.8540000000000001       0.22891300000000001        0.0000000000000000       
   1.0460000000000000       0.50872799999999996        0.0000000000000000       
  0.27529999999999999       0.46053100000000002        1.0000000000000000       
   6.8559999999999996E-002   0.0000000000000000        0.0000000000000000       
    2    2                                                                      
   1.1850000000000001        1.0000000000000000        0.0000000000000000       
  0.33200000000000002        0.0000000000000000        1.0000000000000000       
          8.00000000    1    3    1    1    1                                   

Running with 32 threads/proc

O #6  -0.813661715265613   2.839549039187778  -4.918243206456620                
   10    4                                                                      
   11720.000000000000        7.1000000000000002E-004  -1.6000000000000001E-004  
   1759.0000000000000        5.4700000000000000E-003  -1.2630000000000000E-003  
   400.80000000000001        2.7837000000000001E-002  -6.2670000000000000E-003  
   113.70000000000000       0.10480000000000000       -2.5715999999999999E-002  
   37.030000000000001       0.28306199999999998       -7.0924000000000001E-002  
   13.270000000000000       0.44871899999999998      -0.16541100000000000       
   5.0250000000000004       0.27095200000000003      -0.11695500000000000       
   1.0129999999999999        1.5458000000000000E-002  0.55736799999999997       
  0.30230000000000001       -2.5850000000000001E-003  0.57275900000000002       
   7.8960000000000002E-002   0.0000000000000000        0.0000000000000000       
    5    3                                                                      
   17.699999999999999        4.3018000000000001E-002   0.0000000000000000       
   3.8540000000000001       0.22891300000000001        0.0000000000000000       
   1.0460000000000000       0.50872799999999996        0.0000000000000000       
  0.27529999999999999       0.46053100000000002        1.0000000000000000       
   6.8559999999999996E-002   0.0000000000000000        0.0000000000000000       
    2    2                                                                      
   1.1850000000000001        1.0000000000000000        0.0000000000000000       
  0.33200000000000002        0.0000000000000000        1.0000000000000000       
          8.00000000    1    3    1    1    1                                   
O #7  -0.813661715265613  -5.679098078375556   0.000000000000000                
   10    4                                                                      
   11720.000000000000        7.1000000000000002E-004  -1.6000000000000001E-004  
   1759.0000000000000        5.4700000000000000E-003  -1.2630000000000000E-003  
   400.80000000000001        2.7837000000000001E-002  -6.2670000000000000E-003  
   113.70000000000000       0.10480000000000000       -2.5715999999999999E-002  
   37.030000000000001       0.28306199999999998       -7.0924000000000001E-002  
   13.270000000000000       0.44871899999999998      -0.16541100000000000       
   5.0250000000000004       0.27095200000000003      -0.11695500000000000       
   1.0129999999999999        1.5458000000000000E-002  0.55736799999999997       
  0.30230000000000001       -2.5850000000000001E-003  0.57275900000000002       
   7.8960000000000002E-002   0.0000000000000000        0.0000000000000000       
    5    3                                                                      
   17.699999999999999        4.3018000000000001E-002   0.0000000000000000       
   3.8540000000000001       0.22891300000000001        0.0000000000000000       
   1.0460000000000000       0.50872799999999996        0.0000000000000000       
  0.27529999999999999       0.46053100000000002        1.0000000000000000       
   6.8559999999999996E-002   0.0000000000000000        0.0000000000000000       
    2    2                                                                      
   1.1850000000000001        1.0000000000000000        0.0000000000000000       
  0.33200000000000002        0.0000000000000000        1.0000000000000000       
FINISH                                                                          

********************************************************************************
 ONE- AND TWO-ELECTRON INTEGRALS OVER SYMMETRY-ADAPTED AOS ARE CALCULATED.

  SPHERICAL HARMONICS ARE USED.
  
  INTEGRALS LESS THAN  0.10E-13 ARE NEGLECTED.

  NUCLEAR REPULSION ENERGY :  578.5480460059 A.U.
  @MOLECU-I, ONE ELECTRON INTEGRALS (CPU/WALL):        1.45/       0.11 SECONDS.
  @TWOEL-I,   69331768 INTEGRALS OF SYMMETRY TYPE  I I I I
  @TWOEL-I,   94260924 INTEGRALS OF SYMMETRY TYPE  I J I J
  @TWOEL-I,   48059192 INTEGRALS OF SYMMETRY TYPE  I I J J
  @TWOEL-I, TOTAL NUMBER OF 2-E INTEGRALS  211651884.
  @MOLECU-I, TWO ELECTRON INTEGRALS (CPU/WALL):     1236.91/      54.55 SECONDS.
 @CHECKOUT-I, Total execution time (CPU/WALL):     1238.49/      54.68 seconds.
--executable xvmol finished with status     0 in       54.70 seconds (walltime).
 --invoking executable--
/opt/cfour/2.1/bin/xvmol2ja
 @GETMEM-I,  Allocated   30517 MB of main memory.
 @CHECKOUT-I, Total execution time (CPU/WALL):        0.26/       0.03 seconds.
--executable xvmol2ja finished with status     0 in        0.06 seconds (walltime).
 --invoking executable--
/opt/cfour/2.1/bin/xvscf
  There are  243 functions in the AO basis.

  There are 2 irreducible representations.

       Irrep        # of functions
         1                149
         2                 94


  Parameters for SCF calculation: 
        SCF reference function:  RHF  
  Maximum number of iterations:  500
     Full symmetry point group: C3v 
     Computational point group: C s 
        Initial density matrix: MOREAD                 
     SCF convergence tolerance: 10**(-10)
  DIIS convergence acceleration:  ON
          Latest start for DIIS:   8
                     DIIS order:   6

  Memory information:    2585258 words required.
  Fock matrices are constructed from AO integral file.
 @GETMEM-I,  Allocated      19 MB of main memory.
  Initialization and symmetry analysis required      0.006 seconds.

  @INITGES-I, Occupancies from core Hamiltonian:

          Alpha population by irrep:  28   13
           Beta population by irrep:  28   13


 total no. of electrons in initial guess :   0.0000000000000000     
  --------------------------------------------------------------------
  Iteration         Total Energy            Largest Density Difference
  --------------------------------------------------------------------
       0           578.548046005878973              0.0000000000D+00
   current occupation vector 
    28 13
    28 13
       1         -1284.086035211405033              0.2949325826D+04
   current occupation vector 
    28 13
    28 13
       2         -1160.195469700433932              0.2925933786D+04
   current occupation vector 
    28 13
    28 13
       3         -1279.961601007324589              0.2943372261D+04
   current occupation vector 
    28 13
    28 13
       4         -1155.091731869925297              0.2950241327D+04
   current occupation vector 
    28 13
    28 13
       5         -1279.889758090521809              0.2957186683D+04
   current occupation vector 
    28 13
    28 13
       6         -1144.936006372056909              0.2957002650D+04
   current occupation vector 
    28 13
    28 13
       7         -1280.074328915428850              0.2971145561D+04
   current occupation vector 
    28 13
    28 13
       8         -1141.852622743169832              0.2970975360D+04
   current occupation vector 
    28 13
    28 13
       9         -1584.966741637296309              0.1253788470D+02
   current occupation vector 
    27 14
    27 14
      10         -1614.778522971053007              0.5657207123D+03
   current occupation vector 
    29 12
    29 12
      11         -1669.686405301092691              0.3599156606D+03
   current occupation vector 
    29 12
    29 12
      12         -1678.531751011036704              0.1094964982D+03
   current occupation vector 
    28 13
    28 13
      13         -1683.598143419742883              0.6406536861D+02
   current occupation vector 
    29 12
    29 12
      14         -1581.440168778656243              0.6939091277D+03
   current occupation vector 
    28 13
    28 13
      15         -1648.287631972429153              0.4633820443D+03
   current occupation vector 
    28 13
    28 13
      16         -1552.356414110253354              0.2666710998D+03
   current occupation vector 
    27 14
    27 14
      17         -1666.067251475733883              0.2210242606D+03
   current occupation vector 
    29 12
    29 12
      18         -1672.327479054852120              0.6821071447D+01
   current occupation vector 
    29 12
    29 12
      19         -1672.804108573868234              0.1232223146D+02
   current occupation vector 
    28 13
    28 13
      20         -1671.298819849911524              0.2802654294D+02
   current occupation vector 
    29 12
    29 12
      21         -1670.570883073977711              0.1182195751D+02
   current occupation vector 
    29 12
    29 12
      22         -1670.491875317576159              0.1098931961D+02
   current occupation vector 
    29 12
    29 12
      23         -1427.702362851085581              0.9681617819D+02
   current occupation vector 
    25 16
    25 16
      24         -1690.553850135111134              0.6922259002D+02
   current occupation vector 
    29 12
    29 12
      25         -1680.244194924551266              0.3767313043D+02
   current occupation vector 
    28 13
    28 13
      26         -1692.132915141383819              0.2240938890D+02
   current occupation vector 
    28 13
    28 13
      27         -1699.338953164360191              0.8121447373D+01
   current occupation vector 
    28 13
    28 13
      28         -1699.893766877878079              0.4453414961D+01
   current occupation vector 
    28 13
    28 13
      29         -1704.240472677331582              0.3432105039D+01
   current occupation vector 
    28 13
    28 13
      30         -1710.228239797116203              0.6610481834D+01
   current occupation vector 
    28 13
    28 13
      31         -1692.406095061160613              0.1052702729D+03
   current occupation vector 
    28 13
    28 13
      32         -1712.328738435663581              0.1053149076D+03
   current occupation vector 
    28 13
    28 13
      33         -1713.074103625930093              0.9567621572D+00
   current occupation vector 
    28 13
    28 13
      34         -1713.159297692829114              0.3489124939D+00
   current occupation vector 
    28 13
    28 13
      35         -1713.206611938564492              0.2031449942D+00
   current occupation vector 
    28 13
    28 13
      36         -1713.227549509878372              0.9963384643D-01
   current occupation vector 
    28 13
    28 13
      37         -1713.231693061415172              0.3421359733D-01
   current occupation vector 
    28 13
    28 13
      38         -1713.233793162537950              0.2636750579D-01
   current occupation vector 
    28 13
    28 13
      39         -1713.236398241279403              0.2479732701D-01
   current occupation vector 
    28 13
    28 13
      40         -1713.240769991557954              0.4160047700D-01
   current occupation vector 
    28 13
    28 13
      41         -1713.244008214864607              0.4119769012D-01
   current occupation vector 
    28 13
    28 13
      42         -1713.245562944376161              0.3102050608D-01
   current occupation vector 
    28 13
    28 13
      43         -1713.247274606933388              0.5622165487D-01
   current occupation vector 
    28 13
    28 13
      44         -1713.247712483981559              0.3645654814D-01
   current occupation vector 
    28 13
    28 13
      45         -1713.247799694072000              0.1708306057D-01
   current occupation vector 
    28 13
    28 13
      46         -1713.247811987482692              0.6002987406D-02
   current occupation vector 
    28 13
    28 13
      47         -1713.247821981567540              0.3927444824D-02
   current occupation vector 
    28 13
    28 13
      48         -1713.247825208329232              0.2020223025D-02
   current occupation vector 
    28 13
    28 13
      49         -1713.247828498393574              0.1626905420D-02
   current occupation vector 
    28 13
    28 13
      50         -1713.247831057325584              0.1025266616D-02
   current occupation vector 
    28 13
    28 13
      51         -1713.247833717701269              0.1448790085D-02
   current occupation vector 
    28 13
    28 13
      52         -1713.247836216506585              0.1688823871D-02
   current occupation vector 
    28 13
    28 13
      53         -1713.247837734651512              0.1362373883D-02
   current occupation vector 
    28 13
    28 13
      54         -1713.247838424326346              0.5878834603D-03
   current occupation vector 
    28 13
    28 13
      55         -1713.247839209933773              0.9569959769D-03
   current occupation vector 
    28 13
    28 13
      56         -1713.247840112675931              0.1061446773D-02
   current occupation vector 
    28 13
    28 13
      57         -1713.247840778866703              0.1043914136D-02
   current occupation vector 
    28 13
    28 13
      58         -1713.247841219021211              0.9399321706D-03
   current occupation vector 
    28 13
    28 13
      59         -1713.247841402592258              0.5246598693D-03
   current occupation vector 
    28 13
    28 13
      60         -1713.247841515895288              0.4859210951D-03
   current occupation vector 
    28 13
    28 13
      61         -1713.247841514924403              0.1702349222D-03
   current occupation vector 
    28 13
    28 13
      62         -1713.247841579766828              0.4081090915D-03
   current occupation vector 
    28 13
    28 13
      63         -1713.247841600431457              0.1865198058D-03
   current occupation vector 
    28 13
    28 13
      64         -1713.247841610049818              0.7984928080D-04
   current occupation vector 
    28 13
    28 13
      65         -1713.247841617591803              0.5701982132D-04
   current occupation vector 
    28 13
    28 13
      66         -1713.247841629650793              0.1175324497D-03
   current occupation vector 
    28 13
    28 13
      67         -1713.247841645876633              0.2215251430D-03
   current occupation vector 
    28 13
    28 13
      68         -1713.247841651880663              0.1086195745D-03
   current occupation vector 
    28 13
    28 13
      69         -1713.247841656529999              0.1277413356D-03
   current occupation vector 
    28 13
    28 13
      70         -1713.247841659433107              0.1069178255D-03
   current occupation vector 
    28 13
    28 13
      71         -1713.247841660879658              0.8254380593D-04
   current occupation vector 
    28 13
    28 13
      72         -1713.247841661641360              0.5804625807D-04
   current occupation vector 
    28 13
    28 13
      73         -1713.247841661903294              0.2672557545D-04
   current occupation vector 
    28 13
    28 13
      74         -1713.247841662069732              0.2199570093D-04
   current occupation vector 
    28 13
    28 13
      75         -1713.247841662162955              0.1417177401D-04
   current occupation vector 
    28 13
    28 13
      76         -1713.247841662206156              0.4245942059D-05
   current occupation vector 
    28 13
    28 13
      77         -1713.247841662258452              0.1025970538D-04
   current occupation vector 
    28 13
    28 13
      78         -1713.247841662257542              0.3485732200D-05
   current occupation vector 
    28 13
    28 13
      79         -1713.247841662286191              0.5610602107D-05
   current occupation vector 
    28 13
    28 13
      80         -1713.247841662281644              0.4186555895D-05
   current occupation vector 
    28 13
    28 13
      81         -1713.247841662337123              0.4143444903D-05
   current occupation vector 
    28 13
    28 13
      82         -1713.247841662318024              0.4854257948D-05
   current occupation vector 
    28 13
    28 13
      83         -1713.247841662302108              0.1052739010D-05
   current occupation vector 
    28 13
    28 13
      84         -1713.247841662337123              0.4468939480D-05
   current occupation vector 
    28 13
    28 13
      85         -1713.247841662348947              0.1896020870D-05
   current occupation vector 
    28 13
    28 13
      86         -1713.247841662308474              0.1856434388D-05
   current occupation vector 
    28 13
    28 13
      87         -1713.247841662337123              0.1271232229D-05
   current occupation vector 
    28 13
    28 13
      88         -1713.247841662326209              0.1324633347D-05
   current occupation vector 
    28 13
    28 13
      89         -1713.247841662371684              0.1789317983D-05
   current occupation vector 
    28 13
    28 13
      90         -1713.247841662297560              0.7663857433D-06
   current occupation vector 
    28 13
    28 13
      91         -1713.247841662316205              0.5826770821D-06
   current occupation vector 
    28 13
    28 13
      92         -1713.247841662368955              0.2481024055D-06
   current occupation vector 
    28 13
    28 13
      93         -1713.247841662339852              0.1853154721D-06
   current occupation vector 
    28 13
    28 13
      94         -1713.247841662377596              0.2262821923D-06
   current occupation vector 
    28 13
    28 13
      95         -1713.247841662351675              0.1525513245D-06
   current occupation vector 
    28 13
    28 13
      96         -1713.247841662328938              0.7393805146D-07
   current occupation vector 
    28 13
    28 13
      97         -1713.247841662356677              0.9687503821D-07
   current occupation vector 
    28 13
    28 13
      98         -1713.247841662339397              0.1604386957D-07
   current occupation vector 
    28 13
    28 13
      99         -1713.247841662343490              0.6217617021D-07
   current occupation vector 
    28 13
    28 13
     100         -1713.247841662330302              0.6375491468D-08
   current occupation vector 
    28 13
    28 13
     101         -1713.247841662333940              0.9348882113D-08
   current occupation vector 
    28 13
    28 13
     102         -1713.247841662359406              0.8350030445D-08
   current occupation vector 
    28 13
    28 13
     103         -1713.247841662313476              0.2102211738D-07
   current occupation vector 
    28 13
    28 13
     104         -1713.247841662357587              0.1195076282D-07
   current occupation vector 
    28 13
    28 13
     105         -1713.247841662334849              0.1264706095D-07
   current occupation vector 
    28 13
    28 13
     106         -1713.247841662331666              0.5172178019D-08
   current occupation vector 
    28 13
    28 13
     107         -1713.247841662338487              0.1647715431D-07
   current occupation vector 
    28 13
    28 13
     108         -1713.247841662358496              0.8714147404D-08
   current occupation vector 
    28 13
    28 13
     109         -1713.247841662338033              0.2775648378D-08
   current occupation vector 
    28 13
    28 13
     110         -1713.247841662325754              0.9355294317D-08
   current occupation vector 
    28 13
    28 13
     111         -1713.247841662368501              0.2181929526D-08
   current occupation vector 
    28 13
    28 13
     112         -1713.247841662334849              0.4351164096D-08
   current occupation vector 
    28 13
    28 13
     113         -1713.247841662343944              0.3865749720D-08
   current occupation vector 
    28 13
    28 13
     114         -1713.247841662366682              0.3146115479D-08
   current occupation vector 
    28 13
    28 13
     115         -1713.247841662351675              0.1601205391D-08
   current occupation vector 
    28 13
    28 13
     116         -1713.247841662329847              0.1362773894D-08
   current occupation vector 
    28 13
    28 13
     117         -1713.247841662348947              0.2137538146D-08
   current occupation vector 
    28 13
    28 13
     118         -1713.247841662348492              0.1580389375D-08
   current occupation vector 
    28 13
    28 13
     119         -1713.247841662358042              0.1831118590D-08
   current occupation vector 
    28 13
    28 13
     120         -1713.247841662347582              0.1968446295D-08
   current occupation vector 
    28 13
    28 13
     121         -1713.247841662355313              0.1016264184D-08
   current occupation vector 
    28 13
    28 13
     122         -1713.247841662359860              0.9058966910D-09
   current occupation vector 
    28 13
    28 13
     123         -1713.247841662347582              0.4024197642D-09
   current occupation vector 
    28 13
    28 13
     124         -1713.247841662363953              0.6639682137D-09
   current occupation vector 
    28 13
    28 13
     125         -1713.247841662348492              0.5332041197D-09
   current occupation vector 
    28 13
    28 13
     126         -1713.247841662331666              0.1067238076D-08
   current occupation vector 
    28 13
    28 13
     127         -1713.247841662359860              0.3671003640D-09
   current occupation vector 
    28 13
    28 13
     128         -1713.247841662368046              0.3748583666D-09
   current occupation vector 
    28 13
    28 13
     129         -1713.247841662338487              0.3762770096D-09
   current occupation vector 
    28 13
    28 13
     130         -1713.247841662334849              0.2245628128D-09
   current occupation vector 
    28 13
    28 13
     131         -1713.247841662371229              0.3792183234D-09
   current occupation vector 
    28 13
    28 13
     132         -1713.247841662386236              0.3913657315D-09
   current occupation vector 
    28 13
    28 13
     133         -1713.247841662363498              0.4105673579D-09
   current occupation vector 
    28 13
    28 13
     134         -1713.247841662369865              0.5486713306D-09
   current occupation vector 
    28 13
    28 13
     135         -1713.247841662355313              0.5007745885D-09
   current occupation vector 
    28 13
    28 13
     136         -1713.247841662363044              0.3638964685D-09
   current occupation vector 
    28 13
    28 13
     137         -1713.247841662367136              0.5676557002D-09
   current occupation vector 
    28 13
    28 13
     138         -1713.247841662344399              0.1408281936D-08
   current occupation vector 
    28 13
    28 13
     139         -1713.247841662365317              0.5451297191D-09
   current occupation vector 
    28 13
    28 13
     140         -1713.247841662348492              0.8046728839D-09
   current occupation vector 
    28 13
    28 13
     141         -1713.247841662343944              0.1050068255D-08
   current occupation vector 
    28 13
    28 13
     142         -1713.247841662349856              0.7032496807D-09
   current occupation vector 
    28 13
    28 13
     143         -1713.247841662343035              0.7326048657D-09
   current occupation vector 
    28 13
    28 13
     144         -1713.247841662341671              0.4650434482D-09
   current occupation vector 
    28 13
    28 13
     145         -1713.247841662333485              0.6525822105D-09
   current occupation vector 
    28 13
    28 13
     146         -1713.247841662347128              0.4166305079D-09
   current occupation vector 
    28 13
    28 13
     147         -1713.247841662341671              0.1213627199D-08
   current occupation vector 
    28 13
    28 13
     148         -1713.247841662345763              0.2949627209D-09
   current occupation vector 
    28 13
    28 13
     149         -1713.247841662341216              0.1580948039D-08
   current occupation vector 
    28 13
    28 13
     150         -1713.247841662330302              0.8547007546D-09
   current occupation vector 
    28 13
    28 13
     151         -1713.247841662352585              0.1501401448D-08
   current occupation vector 
    28 13
    28 13
     152         -1713.247841662362589              0.4690177968D-09
   current occupation vector 
    28 13
    28 13
     153         -1713.247841662371684              0.8056453282D-09
   current occupation vector 
    28 13
    28 13
     154         -1713.247841662329392              0.4907072526D-09
   current occupation vector 
    28 13
    28 13
     155         -1713.247841662363044              0.9028704451D-09
   current occupation vector 
    28 13
    28 13
     156         -1713.247841662367591              0.1043154452D-08
   current occupation vector 
    28 13
    28 13
     157         -1713.247841662383507              0.3619065048D-09
   current occupation vector 
    28 13
    28 13
     158         -1713.247841662368955              0.1011864703D-08
   current occupation vector 
    28 13
    28 13
     159         -1713.247841662337578              0.3422893080D-09
   current occupation vector 
    28 13
    28 13
     160         -1713.247841662329847              0.1178468434D-08
   current occupation vector 
    28 13
    28 13
     161         -1713.247841662348492              0.6630732768D-09
   current occupation vector 
    28 13
    28 13
     162         -1713.247841662363044              0.7287360299D-09
   current occupation vector 
    28 13
    28 13
     163         -1713.247841662343035              0.1543379202D-08
   current occupation vector 
    28 13
    28 13
     164         -1713.247841662361225              0.6881109016D-09
   current occupation vector 
    28 13
    28 13
     165         -1713.247841662354404              0.4960910571D-09
   current occupation vector 
    28 13
    28 13
     166         -1713.247841662357132              0.3807505422D-09
   current occupation vector 
    28 13
    28 13
     167         -1713.247841662350311              0.8415392827D-09
   current occupation vector 
    28 13
    28 13
     168         -1713.247841662342125              0.5160631922D-09
   current occupation vector 
    28 13
    28 13
     169         -1713.247841662364863              0.2168190072D-09
   current occupation vector 
    28 13
    28 13
     170         -1713.247841662361225              0.3453025643D-09
   current occupation vector 
    28 13
    28 13
     171         -1713.247841662388055              0.2719552916D-09
   current occupation vector 
    28 13
    28 13
     172         -1713.247841662370774              0.6831231136D-09
   current occupation vector 
    28 13
    28 13
     173         -1713.247841662368046              0.4920897023D-09
   current occupation vector 
    28 13
    28 13
     174         -1713.247841662381688              0.5336258102D-09
   current occupation vector 
    28 13
    28 13
     175         -1713.247841662373503              0.4409156373D-09
   current occupation vector 
    28 13
    28 13
     176         -1713.247841662362589              0.5808880044D-09
   current occupation vector 
    28 13
    28 13
     177         -1713.247841662349401              0.5749227205D-09
   current occupation vector 
    28 13
    28 13
     178         -1713.247841662369410              0.8302242782D-09
   current occupation vector 
    28 13
    28 13
     179         -1713.247841662372139              0.6715661360D-09
   current occupation vector 
    28 13
    28 13
     180         -1713.247841662344854              0.5374585776D-09
   current occupation vector 
    28 13
    28 13
     181         -1713.247841662360315              0.5865531394D-09
   current occupation vector 
    28 13
    28 13
     182         -1713.247841662368046              0.7039659966D-09
   current occupation vector 
    28 13
    28 13
     183         -1713.247841662348492              0.1069552003D-08
   current occupation vector 
    28 13
    28 13
     184         -1713.247841662354404              0.2988580772D-09
   current occupation vector 
    28 13
    28 13
     185         -1713.247841662364408              0.3855813446D-09
   current occupation vector 
    28 13
    28 13
     186         -1713.247841662368955              0.5860321395D-09
   current occupation vector 
    28 13
    28 13
     187         -1713.247841662363953              0.1418153595D-08
   current occupation vector 
    28 13
    28 13
     188         -1713.247841662363498              0.3258173731D-09
   current occupation vector 
    28 13
    28 13
     189         -1713.247841662373048              0.3860612663D-09
   current occupation vector 
    28 13
    28 13
     190         -1713.247841662361225              0.2754136919D-09
   current occupation vector 
    28 13
    28 13
     191         -1713.247841662374412              0.9569143256D-09
   current occupation vector 
    28 13
    28 13
     192         -1713.247841662386236              0.7767434751D-09
   current occupation vector 
    28 13
    28 13
     193         -1713.247841662383507              0.8810985275D-09
   current occupation vector 
    28 13
    28 13
     194         -1713.247841662381688              0.4900941875D-09
   current occupation vector 
    28 13
    28 13
     195         -1713.247841662374867              0.4523820762D-09
   current occupation vector 
    28 13
    28 13
     196         -1713.247841662387145              0.5671001585D-09
   current occupation vector 
    28 13
    28 13
     197         -1713.247841662378960              0.8213025815D-09
   current occupation vector 
    28 13
    28 13
     198         -1713.247841662377141              0.1244580633D-08
   current occupation vector 
    28 13
    28 13
     199         -1713.247841662364863              0.4555722466D-09
   current occupation vector 
    28 13
    28 13
     200         -1713.247841662358042              0.5345925924D-09
   current occupation vector 
    28 13
    28 13
     201         -1713.247841662365772              0.5829237093D-09
   current occupation vector 
    28 13
    28 13
     202         -1713.247841662366682              0.3040894203D-09
   current occupation vector 
    28 13
    28 13
     203         -1713.247841662378050              0.4918424557D-09
   current occupation vector 
    28 13
    28 13
     204         -1713.247841662367591              0.2330427851D-08
   current occupation vector 
    28 13
    28 13
     205         -1713.247841662392602              0.1423121621D-08
   current occupation vector 
    28 13
    28 13
     206         -1713.247841662357587              0.5642684098D-09
   current occupation vector 
    28 13
    28 13
     207         -1713.247841662372139              0.5441118112D-09
   current occupation vector 
    28 13
    28 13
     208         -1713.247841662379415              0.1494845581D-08
   current occupation vector 
    28 13
    28 13
     209         -1713.247841662387600              0.7913210087D-09
   current occupation vector 
    28 13
    28 13
     210         -1713.247841662363498              0.6120378232D-09
   current occupation vector 
    28 13
    28 13
     211         -1713.247841662354858              0.4780020824D-09
   current occupation vector 
    28 13
    28 13
     212         -1713.247841662362134              0.7311922179D-09
   current occupation vector 
    28 13
    28 13
     213         -1713.247841662381234              0.5066829178D-09
   current occupation vector 
    28 13
    28 13
     214         -1713.247841662368501              0.7815803560D-09
   current occupation vector 
    28 13
    28 13
     215         -1713.247841662377141              0.6735079161D-09
   current occupation vector 
    28 13
    28 13
     216         -1713.247841662369410              0.1858341259D-08
   current occupation vector 
    28 13
    28 13
     217         -1713.247841662384417              0.5795132152D-09
   current occupation vector 
    28 13
    28 13
     218         -1713.247841662350311              0.5266569403D-09
   current occupation vector 
    28 13
    28 13
     219         -1713.247841662370320              0.4369216100D-09
   current occupation vector 
    28 13
    28 13
     220         -1713.247841662356223              0.8250476968D-09
   current occupation vector 
    28 13
    28 13
     221         -1713.247841662346673              0.1549097073D-08
   current occupation vector 
    28 13
    28 13
     222         -1713.247841662372139              0.4104385720D-09
   current occupation vector 
    28 13
    28 13
     223         -1713.247841662381234              0.2893323914D-09
   current occupation vector 
    28 13
    28 13
     224         -1713.247841662350766              0.6607967507D-09
   current occupation vector 
    28 13
    28 13
     225         -1713.247841662350311              0.6921849760D-09
   current occupation vector 
    28 13
    28 13
     226         -1713.247841662361679              0.2578190994D-09
   current occupation vector 
    28 13
    28 13
     227         -1713.247841662344854              0.5608866704D-09
   current occupation vector 
    28 13
    28 13
     228         -1713.247841662348492              0.4268504994D-09
   current occupation vector 
    28 13
    28 13
     229         -1713.247841662358496              0.1217045353D-08
   current occupation vector 
    28 13
    28 13
     230         -1713.247841662339397              0.4891478333D-09
   current occupation vector 
    28 13
    28 13
     231         -1713.247841662347582              0.7334379770D-09
   current occupation vector 
    28 13
    28 13
     232         -1713.247841662380324              0.4238390611D-09
   current occupation vector 
    28 13
    28 13
     233         -1713.247841662347128              0.1122979043D-08
   current occupation vector 
    28 13
    28 13
     234         -1713.247841662337578              0.7481346653D-09
   current occupation vector 
    28 13
    28 13
     235         -1713.247841662354404              0.8801244039D-09
   current occupation vector 
    28 13
    28 13
     236         -1713.247841662355768              0.3293313400D-09
   current occupation vector 
    28 13
    28 13
     237         -1713.247841662364863              0.3134952298D-09
   current occupation vector 
    28 13
    28 13
     238         -1713.247841662354858              0.7277125569D-09
   current occupation vector 
    28 13
    28 13
     239         -1713.247841662344854              0.3322120357D-09
   current occupation vector 
    28 13
    28 13
     240         -1713.247841662355768              0.5314868545D-09
   current occupation vector 
    28 13
    28 13
     241         -1713.247841662358042              0.2193081272D-09
   current occupation vector 
    28 13
    28 13
     242         -1713.247841662370320              0.3486635425D-09
   current occupation vector 
    28 13
    28 13
     243         -1713.247841662329847              0.1187521859D-08
   current occupation vector 
    28 13
    28 13
     244         -1713.247841662379869              0.7349030273D-09
   current occupation vector 
    28 13
    28 13
     245         -1713.247841662341216              0.3608784382D-09
   current occupation vector 
    28 13
    28 13
     246         -1713.247841662379415              0.8799316831D-09
   current occupation vector 
    28 13
    28 13
     247         -1713.247841662358951              0.6397846697D-09
   current occupation vector 
    28 13
    28 13
     248         -1713.247841662354858              0.3338813670D-09
   current occupation vector 
    28 13
    28 13
     249         -1713.247841662370774              0.7945020197D-09
   current occupation vector 
    28 13
    28 13
     250         -1713.247841662372593              0.5159954686D-09
   current occupation vector 
    28 13
    28 13
     251         -1713.247841662364863              0.8490659287D-09
   current occupation vector 
    28 13
    28 13
     252         -1713.247841662375777              0.3668151338D-09
   current occupation vector 
    28 13
    28 13
     253         -1713.247841662376231              0.1301706520D-08
   current occupation vector 
    28 13
    28 13
     254         -1713.247841662362589              0.2506501673D-09
   current occupation vector 
    28 13
    28 13
     255         -1713.247841662351675              0.6351950077D-09
   current occupation vector 
    28 13
    28 13
     256         -1713.247841662343944              0.1251270199D-08
   current occupation vector 
    28 13
    28 13
     257         -1713.247841662358496              0.1247646431D-09
   current occupation vector 
    28 13
    28 13
     258         -1713.247841662353494              0.1000194150D-08
   current occupation vector 
    28 13
    28 13
     259         -1713.247841662369865              0.6726783575D-09
   current occupation vector 
    28 13
    28 13
     260         -1713.247841662352585              0.1001021932D-08
   current occupation vector 
    28 13
    28 13
     261         -1713.247841662353949              0.6534015551D-09
   current occupation vector 
    28 13
    28 13
     262         -1713.247841662336668              0.5489502186D-09
   current occupation vector 
    28 13
    28 13
     263         -1713.247841662352130              0.6675158204D-09
   current occupation vector 
    28 13
    28 13
     264         -1713.247841662369865              0.6243475736D-09
   current occupation vector 
    28 13
    28 13
     265         -1713.247841662331666              0.2839385393D-09
   current occupation vector 
    28 13
    28 13
     266         -1713.247841662363498              0.4271296650D-09
   current occupation vector 
    28 13
    28 13
     267         -1713.247841662343035              0.4201337056D-09
   current occupation vector 
    28 13
    28 13
     268         -1713.247841662368501              0.7372888966D-09
   current occupation vector 
    28 13
    28 13
     269         -1713.247841662358951              0.3655243885D-09
   current occupation vector 
    28 13
    28 13
     270         -1713.247841662329392              0.4314756330D-09
   current occupation vector 
    28 13
    28 13
     271         -1713.247841662339852              0.5250693214D-09
   current occupation vector 
    28 13
    28 13
     272         -1713.247841662345309              0.3862139497D-09
   current occupation vector 
    28 13
    28 13
     273         -1713.247841662349856              0.3913196434D-09
   current occupation vector 
    28 13
    28 13
     274         -1713.247841662367136              0.6231839489D-09
   current occupation vector 
    28 13
    28 13
     275         -1713.247841662352585              0.2858976389D-09
   current occupation vector 
    28 13
    28 13
     276         -1713.247841662358951              0.5621615395D-09
   current occupation vector 
    28 13
    28 13
     277         -1713.247841662358042              0.6452435253D-09
   current occupation vector 
    28 13
    28 13
     278         -1713.247841662364408              0.5428026917D-09
   current occupation vector 
    28 13
    28 13
     279         -1713.247841662341671              0.9169922599D-09
   current occupation vector 
    28 13
    28 13
     280         -1713.247841662349401              0.3232991375D-09
   current occupation vector 
    28 13
    28 13
     281         -1713.247841662365317              0.5033260475D-09
   current occupation vector 
    28 13
    28 13
     282         -1713.247841662367591              0.3354108102D-09
   current occupation vector 
    28 13
    28 13
     283         -1713.247841662379415              0.3820426198D-09
   current occupation vector 
    28 13
    28 13
     284         -1713.247841662369865              0.2724801496D-09
   current occupation vector 
    28 13
    28 13
     285         -1713.247841662360315              0.1499800728D-08
   current occupation vector 
    28 13
    28 13
     286         -1713.247841662389874              0.1167656416D-08
   current occupation vector 
    28 13
    28 13
     287         -1713.247841662343490              0.1558067897D-08
   current occupation vector 
    28 13
    28 13
     288         -1713.247841662365772              0.4926409281D-09
   current occupation vector 
    28 13
    28 13
     289         -1713.247841662364863              0.8548473041D-09
   current occupation vector 
    28 13
    28 13
     290         -1713.247841662348037              0.1326274868D-08
   current occupation vector 
    28 13
    28 13
     291         -1713.247841662359406              0.6836766986D-09
   current occupation vector 
    28 13
    28 13
     292         -1713.247841662370320              0.6588924961D-09
   current occupation vector 
    28 13
    28 13
     293         -1713.247841662348947              0.4642492502D-09
   current occupation vector 
    28 13
    28 13
     294         -1713.247841662361225              0.8845957300D-09
   current occupation vector 
    28 13
    28 13
     295         -1713.247841662373048              0.2745925709D-09
   current occupation vector 
    28 13
    28 13
     296         -1713.247841662360315              0.7733643725D-09
   current occupation vector 
    28 13
    28 13
[...]
    3     3         -27.4181461836        -746.0856879196      A1       A'  (1)
    4   150         -27.4081092908        -745.8125701813       E       A'' (2)
    5     4         -27.4081092908        -745.8125701813       E       A'  (1)
    6     5         -20.6754292811        -562.6070331263      A1       A'  (1)
    7     6         -20.6725883267        -562.5297268283               A'  (1)
    8   151         -20.6725883267        -562.5297268283               A'' (2)
    9     7         -20.6725880018        -562.5297179877               A'  (1)
   10     8         -11.4013284731        -310.2459203499      A1       A'  (1)
   11     9         -11.4008507973        -310.2329221314               A'  (1)
   12    10         -11.4008472999        -310.2328269624               A'  (1)
   13   152         -11.4008472999        -310.2328269624               A'' (2)
   14    11          -4.1243544556        -112.2293903688      A1       A'  (1)
   15    12          -2.7133302578         -73.8334699364      A1       A'  (1)
   16    13          -2.7014169011         -73.5092910183       E       A'  (1)
   17   153          -2.7014169011         -73.5092910183       E       A'' (2)
   18    14          -1.5073794748         -41.0178808186      A1       A'  (1)
   19    15          -1.5054252988         -40.9647049849       E       A'  (1)
   20   154          -1.5054252988         -40.9647049848       E       A'' (2)
   21    16          -1.5053516140         -40.9626999199      A1       A'  (1)
   22    17          -0.8435649963         -22.9545705360      A1       A'  (1)
   23    18          -0.8100614279         -22.0428920917       E       A'  (1)
   24   155          -0.8100614279         -22.0428920917       E       A'' (2)
   25    19          -0.8061446156         -21.9363102116      A1       A'  (1)
   26    20          -0.7073051563         -19.2467517897      A1       A'  (1)
   27    21          -0.6590297952         -17.9331124297       E       A'  (1)
   28   156          -0.6590297952         -17.9331124297       E       A'' (2)
   29   157          -0.6442072075         -17.5297693112       E       A'' (2)
   30    22          -0.6442072075         -17.5297693111       E       A'  (1)
   31    23          -0.6394252767         -17.3996463599      A1       A'  (1)
   32   158          -0.6346283267         -17.2691147143      A2       A'' (2)
   33    24          -0.6332455404         -17.2314871865       E       A'  (1)
   34   159          -0.6332455404         -17.2314871865       E       A'' (2)
   35    25          -0.6188502568         -16.8397716059       E       A'  (1)
   36   160          -0.6188502568         -16.8397716059       E       A'' (2)
   37    26          -0.6029823086         -16.4079827830      A1       A'  (1)
   38   161          -0.4958147708         -13.4918058235       E       A'' (2)
   39    27          -0.4958147708         -13.4918058235       E       A'  (1)
   40   162          -0.3393708926          -9.2347514722       E       A'' (2)
   41    28          -0.3393708926          -9.2347514722       E       A'  (1)
  +++++++++++++++++++++++++++++++++++++++++++++++++++++++++++++++++++++++++++++
   42    29           0.0086522857           0.2354406644      A1       A'  (1)
   43    30           0.0269500516           0.7333481857      A1       A'  (1)
   44    31           0.0308101421           0.8383865903       E       A'  (1)
   45   163           0.0308101421           0.8383865904       E       A'' (2)
   46    32           0.0373423741           1.0161376598      A1       A'  (1)
   47   164           0.0817501486           2.2245346355       E       A'' (2)
   48    33           0.0817501486           2.2245346358       E       A'  (1)
   49    34           0.0818609403           2.2275494332      A1       A'  (1)
   50   165           0.0859602589           2.3390975632       E       A'' (2)
   51    35           0.0859602589           2.3390975633       E       A'  (1)
   52    36           0.0939039537           2.5552564878      A1       A'  (1)
   53    37           0.1098205556           2.9883692444       E       A'  (1)
   54   166           0.1098205556           2.9883692445       E       A'' (2)
   55   167           0.1176375499           3.2010804738       E       A'' (2)
   56    38           0.1176375499           3.2010804739       E       A'  (1)
   57    39           0.1224868557           3.3330367918      A1       A'  (1)
   58   168           0.1277230072           3.4755197167      A2       A'' (2)
   59    40           0.1374704338           3.7407606798      A1       A'  (1)
   60   169           0.1406748081           3.8279561384       E       A'' (2)
   61    41           0.1406748081           3.8279561385       E       A'  (1)
   62   170           0.1434298930           3.9029258088       E       A'' (2)
   63    42           0.1434298930           3.9029258095       E       A'  (1)
   64    43           0.1447368381           3.9384895927      A1       A'  (1)
   65   171           0.1525500432           4.1510977122      A2       A'' (2)
   66   172           0.1547505003           4.2109751960       E       A'' (2)
   67    44           0.1547505003           4.2109751962       E       A'  (1)
   68   173           0.1732851948           4.7153298745       E       A'' (2)
   69    45           0.1732851949           4.7153298746       E       A'  (1)
   70   174           0.1822226222           4.9585296375       E       A'' (2)
   71    46           0.1822226223           4.9585296409       E       A'  (1)
   72    47           0.2092992710           5.6953227086      A1       A'  (1)
   73   175           0.2320995739           6.3157504934       E       A'' (2)
   74    48           0.2320995740           6.3157504947       E       A'  (1)
   75    49           0.2374866975           6.4623415770      A1       A'  (1)
   76    50           0.2519221468           6.8551501230      A1       A'  (1)
   77   176           0.2543028494           6.9199323347       E       A'' (2)
   78    51           0.2543028495           6.9199323382       E       A'  (1)
   79    52           0.2715662481           7.3896932968      A1       A'  (1)
   80   177           0.3005811997           8.1792302679       E       A'' (2)
   81    53           0.3005811997           8.1792302686       E       A'  (1)
   82    54           0.3053107192           8.3079270365      A1       A'  (1)
   83    55           0.3218727578           8.7586030193       E       A'  (1)
   84   178           0.3218727578           8.7586030194       E       A'' (2)
   85    56           0.3286023728           8.9417251519      A1       A'  (1)
   86    57           0.3414305786           9.2907983787      A1       A'  (1)
   87   179           0.3565959717           9.7034697042      A2       A'' (2)
   88   180           0.3602220589           9.8021405541       E       A'' (2)
   89    58           0.3602220589           9.8021405543       E       A'  (1)
   90   181           0.3794479268          10.3253030158       E       A'' (2)
   91    59           0.3794479268          10.3253030162       E       A'  (1)
   92    60           0.3797915237          10.3346527635      A1       A'  (1)
   93   182           0.3857806920          10.4976263178       E       A'' (2)
   94    61           0.3857806920          10.4976263188       E       A'  (1)
   95    62           0.4174483022          11.3593458001      A1       A'  (1)
   96   183           0.4532051107          12.3323380256       E       A'' (2)
   97    63           0.4532051108          12.3323380294       E       A'  (1)
   98    64           0.4604305177          12.5289513466      A1       A'  (1)
   99   184           0.4883186511          13.2878260374       E       A'' (2)
  100    65           0.4883186512          13.2878260402       E       A'  (1)
  101   185           0.4951444903          13.4735665630      A2       A'' (2)
  102   186           0.5129254161          13.9574101521       E       A'' (2)
  103    66           0.5129254162          13.9574101568       E       A'  (1)
  104    67           0.5130803709          13.9616266887      A1       A'  (1)
  105    68           0.5524490984          15.0329042249       E       A'  (1)
  106   187           0.5524490984          15.0329042253       E       A'' (2)
  107   188           0.6017306157          16.3739224864       E       A'' (2)
  108    69           0.6017306157          16.3739224865       E       A'  (1)
  109    70           0.6090262817          16.5724476529      A1       A'  (1)
  110    71           0.6127243247          16.6730765181       E       A'  (1)
  111   189           0.6127243248          16.6730765197       E       A'' (2)
  112    72           0.6474951077          17.6192376241      A1       A'  (1)
  113   190           0.6675549438          18.1650935155       E       A'' (2)
  114    73           0.6675549439          18.1650935189       E       A'  (1)
  115    74           0.6745023754          18.3541427421      A1       A'  (1)
  116   191           0.6800258997          18.5044454792      A2       A'' (2)
  117   192           0.7290890965          19.8395229384       E       A'' (2)
  118    75           0.7290890965          19.8395229387       E       A'  (1)
  119    76           0.7407074697          20.1556749464      A1       A'  (1)
  120   193           0.7476296718          20.3440376401       E       A'' (2)
  121    77           0.7476296718          20.3440376404       E       A'  (1)
  122    78           0.7993010011          21.7500859916      A1       A'  (1)
  123    79           0.8356447046          22.7390484428       E       A'  (1)
  124   194           0.8356447048          22.7390484487       E       A'' (2)
  125    80           0.8930359706          24.3007441847      A1       A'  (1)
  126    81           0.9060659325          24.6553074753      A1       A'  (1)
  127    82           0.9143453696          24.8806024122       E       A'  (1)
  128   195           0.9143453696          24.8806024124       E       A'' (2)
  129   196           0.9380026968          25.5243510129       E       A'' (2)
  130    83           0.9380026968          25.5243510129       E       A'  (1)
  131   197           1.0089645874          27.4553222239       E       A'' (2)
  132    84           1.0089645874          27.4553222253       E       A'  (1)
  133    85           1.0168693063          27.6704205625      A1       A'  (1)
  134   198           1.0223324342          27.8190798293      A2       A'' (2)
  135    86           1.0444541831          28.4210432203      A1       A'  (1)
  136    87           1.0771091012          29.3096287152       E       A'  (1)
  137   199           1.0771091012          29.3096287167       E       A'' (2)
  138   200           1.1252905551          30.6207127324      A2       A'' (2)
  139    88           1.1308922780          30.7731433594      A1       A'  (1)
  140   201           1.1623715928          31.6297390654       E       A'' (2)
  141    89           1.1623715928          31.6297390663       E       A'  (1)
  142    90           1.1847335501          32.2382388579       E       A'  (1)
  143   202           1.1847335501          32.2382388579       E       A'' (2)
  144    91           1.1860289958          32.2734897274      A1       A'  (1)
  145   203           1.1956705160          32.5358488310      A2       A'' (2)
  146    92           1.2022757188          32.7155855376       E       A'  (1)
  147   204           1.2022757190          32.7155855410       E       A'' (2)
  148   205           1.2492306633          33.9932945349       E       A'' (2)
  149    93           1.2492306633          33.9932945349       E       A'  (1)
  150    94           1.2694413392          34.5432549843      A1       A'  (1)
  151    95           1.2832264042          34.9183656742       E       A'  (1)
  152   206           1.2832264042          34.9183656745       E       A'' (2)
  153   207           1.3175033321          35.8510883001       E       A'' (2)
  154    96           1.3175033321          35.8510883012       E       A'  (1)
  155    97           1.3465305770          36.6409597892      A1       A'  (1)
  156   208           1.3472853618          36.6614985297       E       A'' (2)
  157    98           1.3472853619          36.6614985311       E       A'  (1)
  158    99           1.4237200325          38.7413916582      A1       A'  (1)
  159   100           1.4296313547          38.9022469135       E       A'  (1)
  160   209           1.4296313549          38.9022469192       E       A'' (2)
  161   101           1.4477481282          39.3952293844       E       A'  (1)
  162   210           1.4477481283          39.3952293846       E       A'' (2)
  163   102           1.4741926780          40.1148221658      A1       A'  (1)
  164   103           1.4854663604          40.4215946606      A1       A'  (1)
  165   104           1.5227059373          41.4349350643       E       A'  (1)
  166   211           1.5227059373          41.4349350646       E       A'' (2)
  167   212           1.5547186182          42.3060443994      A2       A'' (2)
  168   105           1.5754993595          42.8715171177       E       A'  (1)
  169   213           1.5754993599          42.8715171298       E       A'' (2)
  170   106           1.6399086260          44.6241823637      A1       A'  (1)
  171   214           1.6537270078          45.0001996488      A2       A'' (2)
  172   107           1.6624655373          45.2379871239       E       A'  (1)
  173   215           1.6624655373          45.2379871256       E       A'' (2)
  174   108           1.6624995021          45.2389113528      A1       A'  (1)
  175   109           1.7089285625          46.5023103176       E       A'  (1)
  176   216           1.7089285627          46.5023103226       E       A'' (2)
  177   110           1.7235124550          46.8991582084       E       A'  (1)
  178   217           1.7235124551          46.8991582095       E       A'' (2)
  179   218           1.7672125478          48.0882981868       E       A'' (2)
  180   111           1.7672125478          48.0882981868       E       A'  (1)
  181   112           1.8454861214          50.2182304092       E       A'  (1)
  182   219           1.8454861219          50.2182304233       E       A'' (2)
  183   113           1.8568021013          50.5261538760       E       A'  (1)
  184   220           1.8568021014          50.5261538799       E       A'' (2)
  185   114           1.8731790155          50.9717923686      A1       A'  (1)
  186   221           1.8759318741          51.0467014571      A2       A'' (2)
  187   115           1.9096896508          51.9652972633      A1       A'  (1)
  188   116           1.9449237190          52.9240650022       E       A'  (1)
  189   222           1.9449237190          52.9240650023       E       A'' (2)
  190   117           1.9517376984          53.1094828073       E       A'  (1)
  191   223           1.9517376984          53.1094828085       E       A'' (2)
  192   118           2.0994415328          57.1287084758       E       A'  (1)
  193   224           2.0994415337          57.1287085007       E       A'' (2)
  194   119           2.1239838658          57.7965393090      A1       A'  (1)
  195   120           2.1793896790          59.3042081335      A1       A'  (1)
  196   121           2.2261236207          60.5759033391       E       A'  (1)
  197   225           2.2261236208          60.5759033409       E       A'' (2)
  198   122           2.2844337369          62.1626022655      A1       A'  (1)
  199   123           2.3586492155          64.1821081094       E       A'  (1)
  200   226           2.3586492155          64.1821081096       E       A'' (2)
  201   124           2.4743685579          67.3309915010      A1       A'  (1)
  202   227           2.6173400962          71.2214448465      A2       A'' (2)
  203   125           2.6806510174          72.9442225964       E       A'  (1)
  204   228           2.6806510175          72.9442225999       E       A'' (2)
  205   126           2.7676045050          75.3103472858       E       A'  (1)
  206   229           2.7676045050          75.3103472862       E       A'' (2)
  207   127           2.8576777826          77.7613657772      A1       A'  (1)
  208   128           2.9995307018          81.6213799469      A1       A'  (1)
  209   230           3.0842826459          83.9275975909       E       A'' (2)
  210   129           3.0842826461          83.9275975982       E       A'  (1)
  211   130           3.1256340052          85.0528252829      A1       A'  (1)
  212   131           3.2007950782          87.0980620566      A1       A'  (1)
  213   231           3.5924260826          97.7548834706      A2       A'' (2)
  214   132           3.5997100960          97.9530915518       E       A'  (1)
  215   232           3.5997100960          97.9530915521       E       A'' (2)
  216   133           3.6351337428          98.9170179843       E       A'  (1)
  217   233           3.6351337428          98.9170179851       E       A'' (2)
  218   134           3.6384062420          99.0060672158      A1       A'  (1)
  219   135           3.6472355682          99.2463253965       E       A'  (1)
  220   234           3.6472355683          99.2463253979       E       A'' (2)
  221   136           3.6612806845          99.6285124419       E       A'  (1)
  222   235           3.6612806845          99.6285124420       E       A'' (2)
  223   137           3.6707814272          99.8870407940      A1       A'  (1)
  224   138           3.7500689770         102.0445647084      A1       A'  (1)
  225   139           3.7573628154         102.2430401437       E       A'  (1)
  226   236           3.7573628154         102.2430401437       E       A'' (2)
  227   140           3.7743289271         102.7047115120       E       A'  (1)
  228   237           3.7743289271         102.7047115133       E       A'' (2)
  229   238           3.8010141265         103.4308527053       E       A'' (2)
  230   141           3.8010141265         103.4308527053       E       A'  (1)
  231   239           3.8289075290         104.1898707756      A2       A'' (2)
  232   142           4.0766362801         110.9309127995      A1       A'  (1)
  233   240           4.1295718189         112.3713620408       E       A'' (2)
  234   143           4.1295718189         112.3713620425       E       A'  (1)
  235   144           4.1678662644         113.4134068808      A1       A'  (1)
  236   145           4.2201699460         114.8366624142      A1       A'  (1)
  237   146           4.2701638952         116.1970669341       E       A'  (1)
  238   241           4.2701638952         116.1970669344       E       A'' (2)
  239   242           4.5072812007         122.6493568444       E       A'' (2)
  240   147           4.5072812008         122.6493568457       E       A'  (1)
  241   148           4.6315459252         126.0307719042      A1       A'  (1)
  242   243           4.6733308954         127.1677987492      A2       A'' (2)
  243   149           4.8227699313         131.2342416508      A1       A'  (1)


  SCF failed to converge in  500 cycles.

 @CHECKOUT-I, Total execution time (CPU/WALL):     2186.24/     839.08 seconds.
 @CHECKOUT-I, Total execution time (CPU/WALL):     2187.06/     839.11 seconds.

  ERROR ERROR ERROR ERROR ERROR ERROR 
  Job has terminated with error flag 
  ERROR ERROR ERROR ERROR ERROR ERROR 

--executable xvscf finished with status   256 in      839.15 seconds (walltime).
  This computation required                        27956.67 seconds (walltime).
Attempting to clean /scratch/jearias... save is False. TIME: Fri 29 Aug 2025 06:26:14 AM PDT
Total of 27957 seconds elapsed for this process.
