 --invoking executable--
/opt/cfour/2.1/bin/xjoda


   *************************************************************************
         <<<     CCCCCC     CCCCCC   |||     CCCCCC     CCCCCC   >>>
       <<<      CCC        CCC       |||    CCC        CCC         >>>
      <<<      CCC        CCC        |||   CCC        CCC            >>>
    <<<        CCC        CCC        |||   CCC        CCC              >>>
      <<<      CCC        CCC        |||   CCC        CCC            >>>
       <<<      CCC        CCC       |||    CCC        CCC         >>>
         <<<     CCCCCC     CCCCCC   |||     CCCCCC     CCCCCC   >>>
   *************************************************************************

     ****************************************************************
     * CFOUR Coupled-Cluster techniques for Computational Chemistry *
     ****************************************************************


   Department of Chemistry                Institut fuer Physikalische Chemie
   University of Florida                  Universitaet Mainz
   Gainesville, FL 32611, USA             D-55099 Mainz, Germany

   Department of Chemistry                Fakultaet fuer Chemie und Biowiss.
   Johns Hopkins University               Karlsruher Institut fuer Technologie
   Baltimore, MD 21218, USA               D-76131 Karlsruhe, Germany

   Department of Chemistry                Department of Physical Chemistry
   Southern Methodist University          Eotvos Lorand University
   Dallas, TX 75275, USA                  H-1053 Budapest, Hungary


                       Version 2.1

                     node010                                           
                     Fri 29 Aug 2025 09:45:21 AM PDT                   
                     integer*8 version is running

********************************************************************************
*                          Input from ZMAT file                                *
********************************************************************************
Optimization on FeCO4 (C2v), S0                                                 
Fe                                                                              
C 1 rFeCAx*                                                                     
C 1 rFeCEq* 2 aCAxCEq*                                                          
C 1 rFeCEq* 2 aCAxCEq* 3 dC                                                     
C 1 rFeCEq* 2 aCAxCEq* 3 dnC                                                    
O 1 rFeOAx* 3 aCAxCEq* 2 d0                                                     
O 1 rFeOEq* 2 aCAxOEq* 3 d0                                                     
O 1 rFeOEq* 2 aCAxOEq* 4 d0                                                     
O 1 rFeOEq* 2 aCAxOEq* 5 d0                                                     
                                                                                
rFeCAx  =   1.7623589608                                                        
rFeCEq  =   1.8461720830                                                        
rFeOAx  =   2.9263744026                                                        
rFeOEq  =   3.0060084560                                                        
aCAxCEq =  91.5136350627                                                        
aCAxOEq =  90.4389159280                                                        
d0      =    0.00000                                                            
dnC     = -120.00000                                                            
dC      =  120.0000                                                             
                                                                                
*ACES2(CALC = CCSD(T)                                                           
      BASIS = SPECIAL                                                           
FROZEN_CORE = ON                                                                
 OCCUPATION = 28-13                                                             
LOCK_ORBOCC = TRUE                                                              
SCF_DAMPING = 500                                                               
   SCF_CONV = 9                                                                 
    CC_CONV = 7                                                                 
 LINEQ_CONV = 7                                                                 
   SCF_MAXCYC = 500                                                             
    CC_MAXCYC = 500                                                             
 LINEQ_MAXCYC = 500                                                             
       MEMORY = 32                                                              
     MEM_UNIT = GB)                                                             
                                                                                
Fe:aug-cc-pVDZ                                                                  
C:aug-cc-pVDZ                                                                   
C:aug-cc-pVDZ                                                                   
C:aug-cc-pVDZ                                                                   
C:aug-cc-pVDZ                                                                   
O:aug-cc-pVDZ                                                                   
O:aug-cc-pVDZ                                                                   
O:aug-cc-pVDZ                                                                   
O:aug-cc-pVDZ                                                                   
                                                                                
********************************************************************************
  @GTFLGS-W, Option TRUE for keyword LOCK_ORBOCC not known.  Default used.
    -------------------------------------------------------------------
                    CFOUR Control Parameters 
    -------------------------------------------------------------------
        External           Internal           Value            Units
          Name               Name
    -------------------------------------------------------------------
       ABCDTYPE             IABCDT         STANDARD    [  0]    ***   
       ANHARMONIC           IANHAR         OFF         [  0]    ***   
       ANH_ALGORIT          IANALG         STANDARD    [  0]    ***   
       ANH_DERIVAT          IANDER         SECOND      [  1]    ***   
       ANH_MODE             ANHMOD         VIBRATION   [  0]    ***   
       ANH_STEPSIZ          ICUBST             50000          x 10-6  
       ANH_SYMMETR          IANHSM         ABELIAN     [  0]    ***   
       AO_LADDERS           IAOLAD         SINGLEPASS  [  1]    ***   
       AV_SCF               IAVSCF         OFF         [  0]    ***   
       BASIS                IBASIS         SPECIAL     [  0]    ***   
       BOTHVECTORS          BOTHVC         OFF         [  0]    ***   
       BOX_POTENT           IPIAB          OFF         [  0]    ***   
       BREIT                IBREIT         OFF         [  0]    ***   
       BRUCK_CONV           IBRTOL          10D-  4             ***   
       BRUECKNER            IBRKNR         OFF         [  0]    ***   
       BUFFERSIZE           IBUFFS              4096            ***   
       CACHE_RECS           ICHREC             10               ***   
       CALCLEVEL            ICLLVL         CCSD(T)     [ 22]    ***   
       CCORBOPT             ICCORB         OFF         [  0]  x 0.01  
       CC_CONV              ICCCNV          10D-  7             ***   
       CC_EXPORDER          ICCEOR              5               ***   
       CC_EXTRAPOL          ICCEXT         DIIS        [  1]    ***   
       CC_GUESS             ICCGES         MP2         [  0]    ***   
       CC_MAXCYC            ICCCYC            500              cycles 
       CC_PROGRAM           ICCPRO         VCC         [  0]    ***   
       CHARGE               ICHRGE              0               ***   
       CHOLESKY             ICHOLE         OFF         [  0]    ***   
       CIS_CONV             ICISTL              5               ***   
       COMM_SIZE            IPSIZE            ***               ***   
       CONSTANT             ICONST         OLD         [  1]    ***   
       CONTINUUM            ICONTU         NONE        [  0]    ***   
       CONTRACTION          ICNTYP         GENERAL     [  1]    ***   
       COORDINATES          ICOORD         INTERNAL    [  0]    ***   
       CPHF_CONVER          ICPHFT          10D- 16             ***   
       CPHF_MAXCYC          ICPHFC             64              cycles 
       CUBIC                ICUBIC         OFF         [  0]    ***   
       CURVILINEAR          ICURVY         OFF         [  0]    ***   
       DBOC                 IDBOC          OFF         [  0]    ***   
       DCT                  IDCT           OFF         [  0]    ***   
       DERIV_LEV            IDRLVL         FIRST       [  1]    ***   
       DEVMEM_SIZE          IDVMEM         *********           MByte  
       DIAG_MRCC            IEOMST          10D-  0             ***   
       DIFF_TYPE            IDIFTY         RELAXED     [  0]    ***   
       DIRECT               IDIRCT         OFF         [  0]    ***   
       DROPMO               IDRPMO      NONE         
       ECP                  IECP           OFF         [  0]    ***   
       EIGENVECTOR          IVEC                1               ***   
       EL_ANHARM            IELANH         OFF         [  0]    ***   
       EOMFOLLOW            IEOMSR         ENERGY      [  0]    ***   
       EOMIP                IEOMIP         OFF         [  0]    ***   
       EOMLEVEL             HBARFM         SAME        [  0]    ***   
       EOM_MRCC             IMRCCE         NEW         [  1]    ***   
       EOM_NONIT            EOMNON         OFF         [  0]    ***   
       EOM_NSING            IEOMSI          10D-  0             ***   
       EOM_NSTATES          IMRCCD         DAVIDSON    [  0]    ***   
       EOM_NTRIP            IEOMTR          10D-  0             ***   
       EOM_ORDER            IEXORD         ENERGY      [  0]    ***   
       EOM_PROPSTA          IEOMST              0               ***   
       ESTATE_CONV          IEXTOL          10D-  5             ***   
       ESTATE_DIAG          IEXDIG         ITERATIVE   [  0]    ***   
       ESTATE_LOCK          IESLOC         ON          [  1]    ***   
       ESTATE_MAXC          IEXMXC             40               ***   
       ESTATE_PROP          IEXPRP         OFF         [  0]    ***   
       EVAL_HESS            IRECAL              0            # of cyc.
       EXCITATION           IEXCIT              0               ***   
       EXCITE               IEXCIT         NONE        [  0]    ***   
       EXTERN_POT           IEXPOT         OFF         [  0]    ***   
       FCGRADNEW            IFCGNW         ON          [  1]    ***   
       FC_FIELD             IFINFC              0             x 10-6  
       FD_CALTYPE           IFDCAL         GRADONLY    [  0]    ***   
       FD_PROJECT           IFDPRJ         OFF         [  1]    ***   
       FD_STEPSIZE          IDISFD              0            10-4 bohr
       FD_USEGROUP          IFDGRP         FULL        [  0]    ***   
       FILE_RECSIZ          IFLREC              4096           words  
       FINITE_PERT          IFIPER              0             x 10-6  
       FIXGEOM              IFIXGM         OFF         [  0]    ***   
       FOCK                 IFOCK          AO          [  1]    ***   
       FREQ_ALGORI          IVIALG         STANDARD    [  0]    ***   
       FROZEN_CORE          IFROCO         ON          [  1]    ***   
       GAMMA_ABCD           IGABCD         STORE       [  0]    ***   
       GAMMA_ABCI           IGABCI         STORE       [  0]    ***   
       GENBAS_1             IGNBS1              0               ***   
       GENBAS_2             IGNBS2              0               ***   
       GENBAS_3             IGNBS3              0               ***   
       GENBAS_4             IGNBS4              0               ***   
       GEO_CONV             ICONTL              5              H/bohr 
       GEO_MAXCYC           IOPTCY             50               ***   
       GEO_MAXSTEP          IMXSTP            300            millibohr
       GEO_METHOD           INR            NR          [  0]    ***   
       GIAO                 IGIAO          OFF         [  1]    ***   
       GIMIC                IGIMIC         OFF         [  0]    ***   
       GRID                 IGRID          OFF         [  0]    ***   
       GRID_ALGO            IGALGO         SERIAL      [  0]    ***   
       GUESS                IGUESS         MOREAD      [  0]    ***   
       HBAR                 IHBAR          OFF         [  0]    ***   
       HESS_TYPE            IHESTP         SCF         [  0]    ***   
       HF2_FILE             IHF2Fl         USE         [  1]    ***   
       HFSTABILITY          ISTABL         OFF         [  0]    ***   
       INCORE               INCORE         OFF         [  0]    ***   
       INPUT_MRCC           IMRCC          ON          [  1]    ***   
       INTEGRALS            INTTYP         VMOL        [  1]    ***   
       JODA_PRINT           IJPRNT              0               ***   
       KEYWORD_OUT          IDMPKW         NO          [  0]    ***   
       LINDEP_TOL           ILINDP              8               ***   
       LINEQ_CONV           IZTACN          10D-  7           cycles  
       LINEQ_EXPOR          ILMAXD              5               ***   
       LINEQ_MAXCY          ILMAXC            500               ***   
       LINEQ_TYPE           ILTYPE         DIIS        [  1]    ***   
       LOCK_ORBOCC          ILOCOC         OFF         [  0]    ***   
       MEMORY_SIZE          IMEMSZ         *********           words  
       MEM_UNIT             IMEMU          GB          [  3]    ***   
       MRCC                 IMRCCC         OFF         [  0]    ***   
       MULTIPLICTY          IMULTP              1               ***   
       NACOUPLING           IVCOUP         OFF         [  0]    ***   
       NEGEVAL              IDIE           ABORT       [  0]    ***   
       NEWNORM              INEWNO         OFF         [  0]    ***   
       NON-HF               INONHF         OFF         [  0]    ***   
       NTOP_TAMP            ITOPT2             15               ***   
       NUC_MODEL            INUCMO         POINT       [  0]    ***   
       OCCUPATION           IOCCU   28, 13,
       OPEN-SHELL           IOPEN          SPIN-ORBITAL[  0]    ***   
       OPTVIB               IOPTVB         OFF         [  0]    ***   
       ORBITALS             IORBTP         STANDARD    [  0]    ***   
       PARALLEL             IPARAL         ON          [  1]    ***   
       PARA_INT             IPINTS         ON          [  1]    ***   
       PARA_PRINT           IPPRIN              0               ***   
       PERT_ORB             IPTORB         CANONICAL   [  1]    ***   
       POINTS               IGRDFD              0               ***   
       PRINT                IPRNT               0               ***   
       PROPS                IPROPS         OFF         [  0]    ***   
       PROP_INTEGR          IINTYP         INTERNAL    [  0]    ***   
       PSI                  IPSI           OFF         [  0]    ***   
       QC_ALG               IQCALG         FLM         [  0]    ***   
       QC_LINALG            IQCLIN         TRIDIAG     [  2]    ***   
       QC_MAXCYC            IQCMAX          10D-100           cycles  
       QC_MAXSCFCY          IQCMSC          10D- 15           cycles  
       QC_RTRUST            IQCRTR          10D-  0           x 10-3  
       QC_SKIPSCF           IQCSKI         OFF         [  0]    ***   
       QC_START             IQCSTA          10D-  1             ***   
       QRHFGUESS            IQGUES         OFF         [  0]    ***   
       QUARTIC              IQUART         OFF         [  0]    ***   
       RAMAN_INT            IRAMIN         OFF         [  0]    ***   
       RAMAN_ORB            IRAMRE         UNRELAXED   [  0]    ***   
       RDO                  IRDOFM         ON          [  1]    ***   
       REDUCE_REPR          REDREP         Ir          [  0]    ***   
       REFERENCE            IREFNC         RHF         [  0]    ***   
       RELATIVIST           IRELAT         OFF         [  0]    ***   
       RELAX_DENS           IRDENS         ON          [  1]    ***   
       RESET_FLAGS          IRESET         OFF         [  0]    ***   
       RESTART_CC           ICCRES         OFF         [  0]    ***   
       ROT_EVEC             ROTVEC              0               ***   
       SAVE_INTS            ISVINT         OFF         [  0]    ***   
       SCALE_ON             ISTCRT              0               ***   
       SCF_CONV             ISCFCV          10D-  9             ***   
       SCF_DAMPING          IDAMP             500             x 10-3  
       SCF_EXPORDE          IRPPOR              6               ***   
       SCF_EXPSTAR          IRPPLS              8               ***   
       SCF_EXTRAPO          IRPP           ON          [  1]    ***   
       SCF_MAXCYC           ISCFCY            500              cycles 
       SCF_NOSTOP           ISCFST         OFF         [  0]    ***   
       SCF_PRINT            ISCFPR              0               ***   
       SCF_PROG             ISCFPR         SCF         [  0]    ***   
       SD_FIELD             IFINSD              0             x 10-6  
       SOPERT               IPERSO         OFF         [  0]    ***   
       SPHERICAL            IDFGHI         ON          [  1]    ***   
       SPINORBIT            ISOCAL         OFF         [  0]    ***   
       SPINROTATIO          ISRCON         OFF         [  0]    ***   
       SPIN_FLIP            ISPFLP         OFF         [  0]    ***   
       SPIN_ORBIT           ISPORB         OFF         [  0]    ***   
       SPIN_SCAL            ISCSMP         OFF         [  0]    ***   
       STEEPSCALE           ISTPSC              1000          x 10-3  
       SUBGROUP             ISUBGP         DEFAULT     [  0]    ***   
       SUBGRPAXIS           ISBXYZ         X           [  0]    ***   
       SYMMETRY             ISYM           ON          [  0]    ***   
       SYM_CHECK            ISYMCK         OVERRIDE    [  1]    ***   
       T3_EXTRAPOL          IT3EXT         OFF         [  0]    ***   
       T4_EXTRAPOL          IT4EXP         OFF         [  0]    ***   
       TAMP_SUM             IEVERY              5               ***   
       TESTSUITE            ITESTS         OFF         [  0]    ***   
       THERMOCH             ITHERM         OFF         [  0]    ***   
       TOL_CHOLESK          ITOLCH          10D-  4             ***   
       TRANGRAD             IRESRM         OFF         [  0]    ***   
       TRANS_INV            ITRAIN         USE         [  0]    ***   
       TREAT_PERT           ITREAT         SIMULTANEOUS[  0]    ***   
       TRIP_ALGORI          ITRALG         NORMAL      [  0]    ***   
       UIJ_THRESHO          IUIJTH              1               ***   
       UNITS                IUNITS         ANGSTROM    [  0]    ***   
       UNOS                 IUNOS          OFF         [  0]    ***   
       UPDATE_HESS          IHUPDT         ON          [  1]    ***   
       VIBPHASE             ISETPH         STANDARD    [  0]    ***   
       VIBRATION            IVIB           NO          [  0]    ***   
       VIB_ALGORIT          IGEALG         STANDARD    [  0]    ***   
       VNATORB              IVNORB         OFF         [  0]    ***   
       VTRAN                IVTRAN         FULL/PARTIAL[  0]    ***   
       XFIELD               IXEFLD              0             x 10-6  
       XFORM_TOL            IXFTOL          10D- 11             ***   
       YFIELD               IYEFLD              0             x 10-6  
       ZFIELD               IZEFLD              0             x 10-6  
       ZSCALE_EXP           IZEXPS         OFF         [  0]    ***   
    -------------------------------------------------------------------
   9 entries found in Z-matrix 
   Job Title : Optimization on FeCO4 (C2v), S0                                                 
   There are  9 unique internal coordinates.
   Of these,  6 will be optimized.
   User supplied Z-matrix: 
--------------------------------------------------------------------------------
       SYMBOL    BOND      LENGTH    ANGLE     ANGLE     DIHED     ANGLE
                  TO      (ANGST)    WRT      (DEG)      WRT      (DEG)
--------------------------------------------------------------------------------
        Fe   
        C          1         rFeCA
        C          1         rFeCE      2        aCAxC
        C          1         rFeCE      2        aCAxC      3        dC   
        C          1         rFeCE      2        aCAxC      3        dnC  
        O          1         rFeOA      3        aCAxC      2        d0   
        O          1         rFeOE      2        aCAxO      3        d0   
        O          1         rFeOE      2        aCAxO      4        d0   
        O          1         rFeOE      2        aCAxO      5        d0   
                  *Initial values for internal coordinates* 
                      Name             Value
                        rFeCA           1.7623589608
                        rFeCE           1.8461720830
                        aCAxC          91.5136350627
                        dC            120.0000000000
                        dnC          -120.0000000000
                        rFeOA           2.9263744026
                        d0              0.0000000000
                        rFeOE           3.0060084560
                        aCAxO          90.4389159280
--------------------------------------------------------------------------------
   Rotational constants (in cm-1): 
          0.0303094558             0.0394594597             0.0394594597
   Rotational constants (in MHz): 
        908.6547538858          1182.9650066115          1182.9650066115
********************************************************************************
   The full molecular point group is C3v .
   The largest Abelian subgroup of the full molecular point group is C s .
   The computational point group is C s .
********************************************************************************
--------------------------------------------------------------------------------
   Analysis of internal coordinates specified by Z-matrix 
--------------------------------------------------------------------------------
   *The nuclear repulsion energy is  579.037678064146576 a.u.
  *ERROR* Parameters 11 and  8 are not equivalent [both called aCAxC].
  *ERROR* Parameters 11 and  5 are not equivalent [both called aCAxC].
  *ERROR* Parameters 11 and  3 are not equivalent [both called aCAxC].
  *WARNING* Parameter aCAxC[ 11] cannot have a nonzero derivative,
    but is being optimized.  Reconstruction of Z-matrix recommended.
   *There are   6 degrees of freedom within the tot. symm. molecular subspace.
   *Z-matrix requests optimization of   6 coordinates.
   *The following   6 parameters can have non-zero 
    derivatives within the totally symmetric subspace:
             rFeCE[ 2]  rFeCA[ 1]  aCAxO[14]  aCAxC[ 3]  rFeOE[16]  rFeOA[10]
   *The following   6 parameters are to be optimized:
             rFeCA[ 1]  rFeCE[ 2]  aCAxC[ 3]  rFeOA[10]  rFeOE[13]  aCAxO[14]

--------------------------------------------------------------------------------


 ----------------------------------------------------------------
         Coordinates used in calculation (QCOMP) 
 ----------------------------------------------------------------
 Z-matrix   Atomic            Coordinates (in bohr)
  Symbol    Number           X              Y              Z
 ----------------------------------------------------------------
     FE       26        -0.73258367    -0.00000000     0.00000000
     C         6         2.59779280    -0.00000000     0.00000000
     C         6        -0.82473872     1.74377150    -3.02030084
     C         6        -0.82473872    -3.48754300    -0.00000000
     C         6        -0.82473872     1.74377150     3.02030084
     O         8         4.79746365    -0.00000000     0.00000000
     O         8        -0.77609913     2.84018361    -4.91934232
     O         8        -0.77609913    -5.68036722     0.00000000
     O         8        -0.77609913     2.84018361     4.91934232
 ----------------------------------------------------------------

   Interatomic distance matrix (Angstroms) 

                 FE            C             C             C             C    
                [ 1]        [ 2]        [ 3]        [ 4]        [ 5]
  FE   [ 1]     0.00000
  C    [ 2]     1.76236     0.00000
  C    [ 3]     1.84617     2.58576     0.00000
  C    [ 4]     1.84617     2.58576     3.19655     0.00000
  C    [ 5]     1.84617     2.58576     3.19655     3.19655     0.00000
  O    [ 6]     2.92638     1.16402     3.50106     3.50106     3.50106
  O    [ 7]     3.00601     3.49616     1.16068     4.24143     4.24143
  O    [ 8]     3.00601     3.49616     4.24143     1.16068     4.24143
  O    [ 9]     3.00601     3.49616     4.24143     4.24143     1.16068

                 O             O             O             O    
                [ 6]        [ 7]        [ 8]        [ 9]
  O    [ 6]     0.00000
  O    [ 7]     4.21124     0.00000
  O    [ 8]     4.21124     5.20641     0.00000
  O    [ 9]     4.21124     5.20641     5.20641     0.00000
 rotcon2
   Rotational constants (in cm-1): 
          0.0303094558             0.0394594597             0.0394594597
   Rotational constants (in MHz): 
        908.6547538858          1182.9650066115          1182.9650066115
  ECPDATA file not present.   Using default ECPDATA. 
  @GTFLGS-W, Option TRUE for keyword LOCK_ORBOCC not known.  Default used.
  There are  17 frozen-core orbitals.
  There are  243 basis functions.
 @CHECKOUT-I, Total execution time (CPU/WALL):        1.32/       0.52 seconds.
--executable xjoda finished with status     0 in        0.56 seconds (walltime).
 --invoking executable--
/opt/cfour/2.1/bin/xvmol
 SERIAL VERSION OF MOLECULE STARTED
********************************************************************************
                    INPUT FROM MOL FILE
********************************************************************************
INTGRL        1    0    1    0    0    0    0    0    0                         
         *** CFOUR Program System (Release V0.1) ***                            
Optimization on FeCO4 (C2v), S0                                                 
    7    1 Z          0.10E-08              0    0                              
   9999.00      3.00                                                            
         26.00000000    1    4    1    1    1    1                              
FE#1  -0.732583667832285  -0.000000000000000   0.000000000000000                
   21    7                                                                      
   4316265.0000000000        8.0488029999999998E-006  -4.1559539999999997E-006  
   646342.40000000002        6.2583059999999998E-005  -3.2314010000000003E-005  
   147089.70000000001        3.2902389999999999E-004  -1.6995250000000000E-004  
   41661.519999999997        1.3873550000000001E-003  -7.1713690000000004E-004  
   13590.770000000000        5.0232560000000002E-003  -2.6036250000000000E-003  
   4905.7500000000000        1.6101399999999998E-002  -8.3991090000000001E-003  
   1912.7460000000001        4.5900339999999998E-002  -2.4341089999999999E-002  
   792.60429999999997       0.11361540000000001       -6.2519480000000002E-002  
   344.80650000000003       0.22838690000000000      -0.13659289999999999       
   155.89990000000000       0.32211590000000001      -0.23127070000000000       
   72.230909999999994       0.23836610000000000      -0.23837340000000001       
   32.725059999999999        7.4046669999999995E-002   3.1238370000000001E-002  
   15.667619999999999        9.2141970000000004E-002  0.50868179999999996      -
   7.5034830000000001        9.3397900000000006E-002  0.49876949999999998      -
   3.3122229999999999        1.5739650000000001E-002   9.0335520000000002E-002  
   1.5584709999999999       -4.1866819999999998E-004  -6.0053370000000003E-003  
  0.68391400000000002        5.3763179999999999E-005   2.3124539999999999E-004  
  0.14675700000000000       -3.8166539999999997E-005  -5.6436799999999999E-004  
   7.0583000000000007E-002   4.3196030000000000E-005   4.9922599999999997E-004  
   3.1448999999999998E-002  -3.4010190000000000E-006  -1.0152930000000000E-004  
   1.4010000000000000E-002   0.0000000000000000        0.0000000000000000       
   17    6                                                                      
   17745.689999999999        4.1000000000000000E-005  -1.5000000000000000E-005  
   4200.7209999999995        3.6900000000000002E-004  -1.2999999999999999E-004  
   1364.4290000000001        2.1289999999999998E-003  -7.5100000000000004E-004  
   522.08060000000000        9.3690000000000006E-003  -3.3289999999999999E-003  
   221.45949999999999        3.3097000000000001E-002  -1.1912000000000001E-002  
   100.90960000000000        9.4431000000000001E-002  -3.4932999999999999E-002  
   48.401150000000001       0.20807700000000001       -7.9989000000000005E-002  
   23.985360000000000       0.33233299999999999      -0.13463600000000001       
   12.182499999999999       0.33298699999999998      -0.13859800000000000       
   6.2422979999999999       0.15684300000000001        3.0277999999999999E-002  
   3.1109439999999999        2.1548999999999999E-002  0.33321600000000001      -
   1.5099579999999999       -2.0950000000000001E-003  0.45615299999999998      -
  0.71084499999999995       -1.7390000000000001E-003  0.28505100000000000      -
  0.27318999999999999       -2.9999999999999997E-004   4.6143999999999998E-002  
  0.10423300000000001        2.9000000000000000E-005  -3.2490000000000002E-003  
   3.8290999999999999E-002  -1.1000000000000000E-005   1.3569999999999999E-003  
   1.4069999999999999E-002   0.0000000000000000        0.0000000000000000       
    9    4                                                                      
   113.34399999999999        3.5300000000000002E-003  -3.8899999999999998E-003  
   33.641399999999997        2.5784000000000001E-002  -2.8441999999999999E-002  
   12.331000000000000        9.9118999999999999E-002 -0.11242900000000000       
   4.9947800000000004       0.23907300000000001      -0.27425699999999997       
   2.0728000000000000       0.35719899999999999      -0.31554599999999999       
  0.83075299999999996       0.36218800000000001        5.7109000000000000E-002  
  0.30917800000000001       0.23646100000000000       0.56360399999999999       
  0.10013000000000000        6.0117999999999998E-002  0.38463700000000001       
   3.2430000000000000E-002   0.0000000000000000        0.0000000000000000       
    3    2                                                                      
   3.2242999999999999       0.42224899999999999        0.0000000000000000       
  0.77580000000000005       0.77146800000000004        0.0000000000000000       
  0.27489999999999998        0.0000000000000000        1.0000000000000000       
          6.00000000    1    3    1    1    1                                   
C #2   2.597792799327765  -0.000000000000000   0.000000000000000                
   10    4                                                                      
   6665.0000000000000        6.9200000000000002E-004  -1.4600000000000000E-004  
   1000.0000000000000        5.3290000000000004E-003  -1.1540000000000001E-003  
   228.00000000000000        2.7077000000000000E-002  -5.7250000000000001E-003  
   64.709999999999994       0.10171800000000000       -2.3311999999999999E-002  
   21.059999999999999       0.27473999999999998       -6.3954999999999998E-002  
   7.4950000000000001       0.44856400000000002      -0.14998100000000000       
   2.7970000000000002       0.28507399999999999      -0.12726199999999999       
  0.52149999999999996        1.5204000000000001E-002  0.54452900000000004       
  0.15959999999999999       -3.1909999999999998E-003  0.58049600000000001       
   4.6899999999999997E-002   0.0000000000000000        0.0000000000000000       
    5    3                                                                      
   9.4390000000000001        3.8108999999999997E-002   0.0000000000000000       
   2.0019999999999998       0.20948000000000000        0.0000000000000000       
  0.54559999999999997       0.50855700000000004        0.0000000000000000       
  0.15170000000000000       0.46884199999999998        1.0000000000000000       
   4.0410000000000001E-002   0.0000000000000000        0.0000000000000000       
    2    2                                                                      
  0.55000000000000004        1.0000000000000000        0.0000000000000000       
  0.15100000000000000        0.0000000000000000        1.0000000000000000       
          6.00000000    1    3    1    1    1                                   
C #3  -0.824738723802039   1.743771501959838  -3.020300838185132                
   10    4                                                                      
   6665.0000000000000        6.9200000000000002E-004  -1.4600000000000000E-004  
   1000.0000000000000        5.3290000000000004E-003  -1.1540000000000001E-003  
   228.00000000000000        2.7077000000000000E-002  -5.7250000000000001E-003  
   64.709999999999994       0.10171800000000000       -2.3311999999999999E-002  
   21.059999999999999       0.27473999999999998       -6.3954999999999998E-002  
   7.4950000000000001       0.44856400000000002      -0.14998100000000000       
   2.7970000000000002       0.28507399999999999      -0.12726199999999999       
  0.52149999999999996        1.5204000000000001E-002  0.54452900000000004       
  0.15959999999999999       -3.1909999999999998E-003  0.58049600000000001       
   4.6899999999999997E-002   0.0000000000000000        0.0000000000000000       
    5    3                                                                      
   9.4390000000000001        3.8108999999999997E-002   0.0000000000000000       
   2.0019999999999998       0.20948000000000000        0.0000000000000000       
  0.54559999999999997       0.50855700000000004        0.0000000000000000       
  0.15170000000000000       0.46884199999999998        1.0000000000000000       
   4.0410000000000001E-002   0.0000000000000000        0.0000000000000000       
    2    2                                                                      
  0.55000000000000004        1.0000000000000000        0.0000000000000000       
  0.15100000000000000        0.0000000000000000        1.0000000000000000       
          6.00000000    1    3    1    1    1                                   
C #4  -0.824738723802039  -3.487543003919677  -0.000000000000000                
   10    4                                                                      
   6665.0000000000000        6.9200000000000002E-004  -1.4600000000000000E-004  
   1000.0000000000000        5.3290000000000004E-003  -1.1540000000000001E-003  
   228.00000000000000        2.7077000000000000E-002  -5.7250000000000001E-003  
   64.709999999999994       0.10171800000000000       -2.3311999999999999E-002  
   21.059999999999999       0.27473999999999998       -6.3954999999999998E-002  
   7.4950000000000001       0.44856400000000002      -0.14998100000000000       
   2.7970000000000002       0.28507399999999999      -0.12726199999999999       
  0.52149999999999996        1.5204000000000001E-002  0.54452900000000004       
  0.15959999999999999       -3.1909999999999998E-003  0.58049600000000001       
   4.6899999999999997E-002   0.0000000000000000        0.0000000000000000       
    5    3                                                                      
   9.4390000000000001        3.8108999999999997E-002   0.0000000000000000       
   2.0019999999999998       0.20948000000000000        0.0000000000000000       
  0.54559999999999997       0.50855700000000004        0.0000000000000000       
  0.15170000000000000       0.46884199999999998        1.0000000000000000       
   4.0410000000000001E-002   0.0000000000000000        0.0000000000000000       
    2    2                                                                      
  0.55000000000000004        1.0000000000000000        0.0000000000000000       
  0.15100000000000000        0.0000000000000000        1.0000000000000000       
          8.00000000    1    3    1    1    1                                   
O #5   4.797463650163903  -0.000000000000000   0.000000000000000                
   10    4                                                                      
   11720.000000000000        7.1000000000000002E-004  -1.6000000000000001E-004  
   1759.0000000000000        5.4700000000000000E-003  -1.2630000000000000E-003  
   400.80000000000001        2.7837000000000001E-002  -6.2670000000000000E-003  
   113.70000000000000       0.10480000000000000       -2.5715999999999999E-002  
   37.030000000000001       0.28306199999999998       -7.0924000000000001E-002  
   13.270000000000000       0.44871899999999998      -0.16541100000000000       
   5.0250000000000004       0.27095200000000003      -0.11695500000000000       
   1.0129999999999999        1.5458000000000000E-002  0.55736799999999997       
  0.30230000000000001       -2.5850000000000001E-003  0.57275900000000002       
   7.8960000000000002E-002   0.0000000000000000        0.0000000000000000       
    5    3                                                                      
   17.699999999999999        4.3018000000000001E-002   0.0000000000000000       
   3.8540000000000001       0.22891300000000001        0.0000000000000000       
   1.0460000000000000       0.50872799999999996        0.0000000000000000       
  0.27529999999999999       0.46053100000000002        1.0000000000000000       
   6.8559999999999996E-002   0.0000000000000000        0.0000000000000000       
    2    2                                                                      
   1.1850000000000001        1.0000000000000000        0.0000000000000000       
  0.33200000000000002        0.0000000000000000        1.0000000000000000       
          8.00000000    1    3    1    1    1                                   

Running with 32 threads/proc

O #6  -0.776099131694029   2.840183612061426  -4.919342318914885                
   10    4                                                                      
   11720.000000000000        7.1000000000000002E-004  -1.6000000000000001E-004  
   1759.0000000000000        5.4700000000000000E-003  -1.2630000000000000E-003  
   400.80000000000001        2.7837000000000001E-002  -6.2670000000000000E-003  
   113.70000000000000       0.10480000000000000       -2.5715999999999999E-002  
   37.030000000000001       0.28306199999999998       -7.0924000000000001E-002  
   13.270000000000000       0.44871899999999998      -0.16541100000000000       
   5.0250000000000004       0.27095200000000003      -0.11695500000000000       
   1.0129999999999999        1.5458000000000000E-002  0.55736799999999997       
  0.30230000000000001       -2.5850000000000001E-003  0.57275900000000002       
   7.8960000000000002E-002   0.0000000000000000        0.0000000000000000       
    5    3                                                                      
   17.699999999999999        4.3018000000000001E-002   0.0000000000000000       
   3.8540000000000001       0.22891300000000001        0.0000000000000000       
   1.0460000000000000       0.50872799999999996        0.0000000000000000       
  0.27529999999999999       0.46053100000000002        1.0000000000000000       
   6.8559999999999996E-002   0.0000000000000000        0.0000000000000000       
    2    2                                                                      
   1.1850000000000001        1.0000000000000000        0.0000000000000000       
  0.33200000000000002        0.0000000000000000        1.0000000000000000       
          8.00000000    1    3    1    1    1                                   
O #7  -0.776099131694029  -5.680367224122851   0.000000000000000                
   10    4                                                                      
   11720.000000000000        7.1000000000000002E-004  -1.6000000000000001E-004  
   1759.0000000000000        5.4700000000000000E-003  -1.2630000000000000E-003  
   400.80000000000001        2.7837000000000001E-002  -6.2670000000000000E-003  
   113.70000000000000       0.10480000000000000       -2.5715999999999999E-002  
   37.030000000000001       0.28306199999999998       -7.0924000000000001E-002  
   13.270000000000000       0.44871899999999998      -0.16541100000000000       
   5.0250000000000004       0.27095200000000003      -0.11695500000000000       
   1.0129999999999999        1.5458000000000000E-002  0.55736799999999997       
  0.30230000000000001       -2.5850000000000001E-003  0.57275900000000002       
   7.8960000000000002E-002   0.0000000000000000        0.0000000000000000       
    5    3                                                                      
   17.699999999999999        4.3018000000000001E-002   0.0000000000000000       
   3.8540000000000001       0.22891300000000001        0.0000000000000000       
   1.0460000000000000       0.50872799999999996        0.0000000000000000       
  0.27529999999999999       0.46053100000000002        1.0000000000000000       
   6.8559999999999996E-002   0.0000000000000000        0.0000000000000000       
    2    2                                                                      
   1.1850000000000001        1.0000000000000000        0.0000000000000000       
  0.33200000000000002        0.0000000000000000        1.0000000000000000       
FINISH                                                                          

********************************************************************************
 ONE- AND TWO-ELECTRON INTEGRALS OVER SYMMETRY-ADAPTED AOS ARE CALCULATED.

  SPHERICAL HARMONICS ARE USED.
  
  INTEGRALS LESS THAN  0.10E-13 ARE NEGLECTED.

  NUCLEAR REPULSION ENERGY :  579.0376780641 A.U.
  @MOLECU-I, ONE ELECTRON INTEGRALS (CPU/WALL):        1.03/       0.11 SECONDS.
  @TWOEL-I,   69344102 INTEGRALS OF SYMMETRY TYPE  I I I I
  @TWOEL-I,   94287643 INTEGRALS OF SYMMETRY TYPE  I J I J
  @TWOEL-I,   48070034 INTEGRALS OF SYMMETRY TYPE  I I J J
  @TWOEL-I, TOTAL NUMBER OF 2-E INTEGRALS  211701779.
  @MOLECU-I, TWO ELECTRON INTEGRALS (CPU/WALL):     1233.66/      54.83 SECONDS.
 @CHECKOUT-I, Total execution time (CPU/WALL):     1235.33/      54.97 seconds.
--executable xvmol finished with status     0 in       55.00 seconds (walltime).
 --invoking executable--
/opt/cfour/2.1/bin/xvmol2ja
 @GETMEM-I,  Allocated   30517 MB of main memory.
 @CHECKOUT-I, Total execution time (CPU/WALL):        1.86/       0.11 seconds.
--executable xvmol2ja finished with status     0 in        0.15 seconds (walltime).
 --invoking executable--
/opt/cfour/2.1/bin/xvscf
  There are  243 functions in the AO basis.

  There are 2 irreducible representations.

       Irrep        # of functions
         1                149
         2                 94


  Parameters for SCF calculation: 
        SCF reference function:  RHF  
  Maximum number of iterations:  500
     Full symmetry point group: C3v 
     Computational point group: C s 
        Initial density matrix: MOREAD                 
     SCF convergence tolerance: 10**(- 9)
  DIIS convergence acceleration:  ON
          Latest start for DIIS:   8
                     DIIS order:   6

     Alpha population by irrep:  28   13
      Beta population by irrep:  28   13


  Memory information:    2585258 words required.
  Fock matrices are constructed from AO integral file.
 @GETMEM-I,  Allocated      19 MB of main memory.
  Initialization and symmetry analysis required      0.011 seconds.

 total no. of electrons in initial guess :   0.0000000000000000     
  --------------------------------------------------------------------
  Iteration         Total Energy            Largest Density Difference
  --------------------------------------------------------------------
       0           579.037678064146462              0.0000000000D+00
   current occupation vector 
    28 13
    28 13
  applying damping factor of   0.50000000000000000     
       1          -874.422935587776806              0.2942429106D+04
   current occupation vector 
    28 13
    28 13
  applying damping factor of   0.50000000000000000     
       2         -1350.880673028597812              0.1084715291D+04
   current occupation vector 
    28 13
    28 13
  applying damping factor of   0.50000000000000000     
       3         -1540.254664698140914              0.9064895467D+03
   current occupation vector 
    28 13
    28 13
  applying damping factor of   0.50000000000000000     
       4         -1621.284336151038588              0.4105393989D+03
   current occupation vector 
    28 13
    28 13
  applying damping factor of   0.50000000000000000     
       5         -1661.508960694397956              0.2533202118D+03
   current occupation vector 
    28 13
    28 13
  applying damping factor of   0.50000000000000000     
       6         -1678.813418337851090              0.1008755972D+03
   current occupation vector 
    28 13
    28 13
  applying damping factor of   0.50000000000000000     
       7         -1687.055125467064499              0.7090119012D+02
   current occupation vector 
    28 13
    28 13
       8         -1654.644542188747891              0.1652924581D+02
   current occupation vector 
    28 13
    28 13
       9         -1709.714463182594045              0.4609095277D+02
   current occupation vector 
    28 13
    28 13
      10         -1712.275558213751538              0.1161681331D+01
   current occupation vector 
    28 13
    28 13
      11         -1712.941023891979967              0.6336670477D+00
   current occupation vector 
    28 13
    28 13
      12         -1713.142193040239363              0.8506699551D+00
   current occupation vector 
    28 13
    28 13
      13         -1713.210961825429422              0.4873404493D+00
   current occupation vector 
    28 13
    28 13
      14         -1713.226439834580560              0.1047855144D+00
   current occupation vector 
    28 13
    28 13
      15         -1713.230921898966244              0.3094679766D-01
   current occupation vector 
    28 13
    28 13
      16         -1713.235002002181318              0.7550809066D-01
   current occupation vector 
    28 13
    28 13
      17         -1713.239107934868116              0.1022979043D+00
   current occupation vector 
    28 13
    28 13
      18         -1713.241999685903465              0.1024621269D+00
   current occupation vector 
    28 13
    28 13
      19         -1713.243372927442124              0.6602979728D-01
   current occupation vector 
    28 13
    28 13
      20         -1713.243829624209411              0.3427715284D-01
   current occupation vector 
    28 13
    28 13
      21         -1713.244185657446906              0.2594342484D-01
   current occupation vector 
    28 13
    28 13
      22         -1713.244369599052789              0.1521995927D-01
   current occupation vector 
    28 13
    28 13
      23         -1713.244502890044259              0.1899526753D-01
   current occupation vector 
    28 13
    28 13
      24         -1713.244553024153447              0.9181290781D-02
   current occupation vector 
    28 13
    28 13
      25         -1713.244565094377776              0.3616692243D-02
   current occupation vector 
    28 13
    28 13
      26         -1713.244573608677001              0.2192371165D-02
   current occupation vector 
    28 13
    28 13
      27         -1713.244576008512013              0.1576492067D-02
   current occupation vector 
    28 13
    28 13
      28         -1713.244584327453595              0.3535071252D-02
   current occupation vector 
    28 13
    28 13
      29         -1713.244590384399089              0.4257074014D-02
   current occupation vector 
    28 13
    28 13
      30         -1713.244595576128177              0.4331539187D-02
   current occupation vector 
    28 13
    28 13
      31         -1713.244600405841993              0.4690903622D-02
   current occupation vector 
    28 13
    28 13
      32         -1713.244603086654024              0.3314112662D-02
   current occupation vector 
    28 13
    28 13
      33         -1713.244604865915790              0.3557364383D-02
   current occupation vector 
    28 13
    28 13
      34         -1713.244605029883587              0.4970950236D-03
   current occupation vector 
    28 13
    28 13
      35         -1713.244605096226223              0.2890755480D-03
   current occupation vector 
    28 13
    28 13
      36         -1713.244605151536689              0.2106987951D-03
   current occupation vector 
    28 13
    28 13
      37         -1713.244605148734081              0.4315459672D-03
   current occupation vector 
    28 13
    28 13
      38         -1713.244605191520350              0.2534982951D-03
   current occupation vector 
    28 13
    28 13
      39         -1713.244605188844162              0.3110915014D-03
   current occupation vector 
    28 13
    28 13
      40         -1713.244605199373382              0.9670718001D-04
   current occupation vector 
    28 13
    28 13
      41         -1713.244605211148155              0.1607174511D-03
   current occupation vector 
    28 13
    28 13
      42         -1713.244605219596906              0.1819573247D-03
   current occupation vector 
    28 13
    28 13
      43         -1713.244605223888811              0.1679112455D-03
   current occupation vector 
    28 13
    28 13
      44         -1713.244605225269424              0.1353871579D-03
   current occupation vector 
    28 13
    28 13
      45         -1713.244605225008854              0.5229925459D-04
   current occupation vector 
    28 13
    28 13
      46         -1713.244605225651867              0.1040229134D-03
   current occupation vector 
    28 13
    28 13
      47         -1713.244605225750547              0.2066110829D-04
   current occupation vector 
    28 13
    28 13
      48         -1713.244605225850137              0.8636220949D-05
   current occupation vector 
    28 13
    28 13
      49         -1713.244605225880605              0.8567357656D-05
   current occupation vector 
    28 13
    28 13
      50         -1713.244605225882424              0.1065489044D-04
   current occupation vector 
    28 13
    28 13
      51         -1713.244605225883788              0.9982696918D-05
   current occupation vector 
    28 13
    28 13
      52         -1713.244605225936084              0.8767283667D-05
   current occupation vector 
    28 13
    28 13
      53         -1713.244605225928353              0.2382088920D-05
   current occupation vector 
    28 13
    28 13
      54         -1713.244605225930627              0.4864561227D-05
   current occupation vector 
    28 13
    28 13
      55         -1713.244605225950636              0.1495555362D-05
   current occupation vector 
    28 13
    28 13
      56         -1713.244605225946088              0.7751285067D-06
   current occupation vector 
    28 13
    28 13
      57         -1713.244605225931082              0.5007671469D-06
   current occupation vector 
    28 13
    28 13
      58         -1713.244605225923351              0.1042877820D-05
   current occupation vector 
    28 13
    28 13
      59         -1713.244605225907435              0.7975871830D-06
   current occupation vector 
    28 13
    28 13
      60         -1713.244605225929718              0.4455421665D-06
   current occupation vector 
    28 13
    28 13
      61         -1713.244605225920168              0.6861128234D-06
   current occupation vector 
    28 13
    28 13
      62         -1713.244605225917439              0.2248707451D-06
   current occupation vector 
    28 13
    28 13
      63         -1713.244605225915620              0.1435138186D-06
   current occupation vector 
    28 13
    28 13
      64         -1713.244605225933810              0.1284413005D-06
   current occupation vector 
    28 13
    28 13
      65         -1713.244605225945634              0.1764995998D-06
   current occupation vector 
    28 13
    28 13
      66         -1713.244605225922442              0.1256712292D-06
   current occupation vector 
    28 13
    28 13
      67         -1713.244605225898795              0.1452324068D-06
   current occupation vector 
    28 13
    28 13
      68         -1713.244605225934265              0.6862808055D-07
   current occupation vector 
    28 13
    28 13
      69         -1713.244605225928808              0.6899647054D-07
   current occupation vector 
    28 13
    28 13
      70         -1713.244605225904252              0.2559613677D-07
   current occupation vector 
    28 13
    28 13
      71         -1713.244605225921077              0.1477399962D-07
   current occupation vector 
    28 13
    28 13
      72         -1713.244605225953364              0.1636878366D-07
   current occupation vector 
    28 13
    28 13
      73         -1713.244605225947907              0.2326367432D-07
   current occupation vector 
    28 13
    28 13
      74         -1713.244605225935175              0.2975831337D-07
   current occupation vector 
    28 13
    28 13
      75         -1713.244605225909254              0.1207921563D-07
   current occupation vector 
    28 13
    28 13
      76         -1713.244605225922896              0.3910511936D-07
   current occupation vector 
    28 13
    28 13
      77         -1713.244605225949726              0.1729756427D-07
   current occupation vector 
    28 13
    28 13
      78         -1713.244605225949272              0.8231747284D-08
   current occupation vector 
    28 13
    28 13
      79         -1713.244605225944269              0.1655931148D-07
   current occupation vector 
    28 13
    28 13
      80         -1713.244605225911073              0.1871020228D-07
   current occupation vector 
    28 13
    28 13
      81         -1713.244605225936084              0.7171120586D-08
   current occupation vector 
    28 13
    28 13
      82         -1713.244605225927444              0.9323526839D-08
   current occupation vector 
    28 13
    28 13
      83         -1713.244605225919258              0.1012877027D-07
   current occupation vector 
    28 13
    28 13
      84         -1713.244605225952455              0.7236330868D-08
   current occupation vector 
    28 13
    28 13
      85         -1713.244605225917439              0.3076531696D-08
   current occupation vector 
    28 13
    28 13
      86         -1713.244605225933356              0.3972182583D-08
   current occupation vector 
    28 13
    28 13
      87         -1713.244605225920168              0.8005449859D-08
   current occupation vector 
    28 13
    28 13
      88         -1713.244605225924261              0.4981609125D-08
   current occupation vector 
    28 13
    28 13
      89         -1713.244605225920168              0.2610840877D-08
   current occupation vector 
    28 13
    28 13
      90         -1713.244605225965188              0.1218840584D-08
   current occupation vector 
    28 13
    28 13
      91         -1713.244605225932446              0.1763365454D-08
   current occupation vector 
    28 13
    28 13
      92         -1713.244605225925170              0.1731963906D-08
   current occupation vector 
    28 13
    28 13
      93         -1713.244605225952000              0.1190399335D-08
   current occupation vector 
    28 13
    28 13
      94         -1713.244605225937448              0.1278046668D-08
   current occupation vector 
    28 13
    28 13
      95         -1713.244605225920623              0.1399288463D-08
   current occupation vector 
    28 13
    28 13

  SCF has converged.

 Density matrix saved to file den.dat
 total electron number:   82.000000000000597     
     E(SCF)=     -1713.244605225929718              0.7384679535D-09

  Eigenvector printing suppressed.

 @PUTMOS-I, Writing converged MOs to NEWMOS. 
 @PUTMOS-I, Symmetry   1 Full Blocks 37 Partial Blocksize   1
 @PUTMOS-I, Symmetry   2 Full Blocks 23 Partial Blocksize   2
 @PUTFOCK-I, Writing converged Fock matrix to NEWFOCK. 
 @PUTFOCK-I, Symmetry   1 Full Blocks 37 Partial Blocksize   1
 @PUTFOCK-I, Symmetry   2 Full Blocks 23 Partial Blocksize   2



  ORBITAL EIGENVALUES (ALPHA)  (1H = 27.2113834 eV)

       MO #        E(hartree)               E(eV)           FULLSYM    COMPSYM
       ----   --------------------   --------------------   -------   ---------
    1     1        -261.3618984027       -7112.0188235884      A1       A'  (1)
    2     2         -31.9322423117        -868.9204883666      A1       A'  (1)
    3     3         -27.4181461721        -746.0856876058      A1       A'  (1)
    4     4         -27.4081092759        -745.8125697747       E       A'  (1)
    5   150         -27.4081092758        -745.8125697740       E       A'' (2)
    6     5         -20.6754293271        -562.6070343800      A1       A'  (1)
    7   151         -20.6725883625        -562.5297278026               A'' (2)
    8     6         -20.6725883625        -562.5297278016               A'  (1)
    9     7         -20.6725880376        -562.5297189616               A'  (1)
   10     8         -11.4013285917        -310.2459235789      A1       A'  (1)
   11     9         -11.4008509114        -310.2329252372               A'  (1)
   12   152         -11.4008474141        -310.2328300686               A'' (2)
   13    10         -11.4008474140        -310.2328300675               A'  (1)
   14    11          -4.1243544309        -112.2293896971      A1       A'  (1)
   15    12          -2.7133302349         -73.8334693138      A1       A'  (1)
   16    13          -2.7014168740         -73.5092902807       E       A'  (1)
   17   153          -2.7014168740         -73.5092902803       E       A'' (2)
   18    14          -1.5073793377         -41.0178770872      A1       A'  (1)
   19   154          -1.5054251567         -40.9647011189       E       A'' (2)
   20    15          -1.5054251567         -40.9647011179       E       A'  (1)
   21    16          -1.5053514731         -40.9626960862      A1       A'  (1)
   22    17          -0.8435650009         -22.9545706627      A1       A'  (1)
   23   155          -0.8100614369         -22.0428923359       E       A'' (2)
   24    18          -0.8100614368         -22.0428923351       E       A'  (1)
   25    19          -0.8061446266         -21.9363105115      A1       A'  (1)
   26    20          -0.7073050996         -19.2467502456      A1       A'  (1)
   27   156          -0.6590297068         -17.9331100249       E       A'' (2)
   28    21          -0.6590297068         -17.9331100245       E       A'  (1)
   29    22          -0.6442071207         -17.5297669502       E       A'  (1)
   30   157          -0.6442071207         -17.5297669496       E       A'' (2)
   31    23          -0.6394252036         -17.3996443709      A1       A'  (1)
   32   158          -0.6346282472         -17.2691125507      A2       A'' (2)
   33   159          -0.6332454830         -17.2314856249       E       A'' (2)
   34    24          -0.6332454830         -17.2314856249       E       A'  (1)
   35   160          -0.6188502033         -16.8397701484       E       A'' (2)
   36    25          -0.6188502033         -16.8397701480       E       A'  (1)
   37    26          -0.6029822838         -16.4079821069      A1       A'  (1)
   38    27          -0.4958147809         -13.4918060980       E       A'  (1)
   39   161          -0.4958147808         -13.4918060953       E       A'' (2)
   40    28          -0.3393708871          -9.2347513241       E       A'  (1)
   41   162          -0.3393708869          -9.2347513184       E       A'' (2)
  +++++++++++++++++++++++++++++++++++++++++++++++++++++++++++++++++++++++++++++
   42    29           0.0086522728           0.2354403137      A1       A'  (1)
   43    30           0.0269500464           0.7333480442      A1       A'  (1)
   44    31           0.0308101423           0.8383865935       E       A'  (1)
   45   163           0.0308101423           0.8383865936       E       A'' (2)
   46    32           0.0373423632           1.0161373616      A1       A'  (1)
   47   164           0.0817501419           2.2245344539       E       A'' (2)
   48    33           0.0817501419           2.2245344549       E       A'  (1)
   49    34           0.0818609403           2.2275494326      A1       A'  (1)
   50    35           0.0859602203           2.3390965118       E       A'  (1)
   51   165           0.0859602203           2.3390965118       E       A'' (2)
   52    36           0.0939039408           2.5552561357      A1       A'  (1)
   53    37           0.1098204766           2.9883670930       E       A'  (1)
   54   166           0.1098204766           2.9883670938       E       A'' (2)
   55    38           0.1176375158           3.2010795438       E       A'  (1)
   56   167           0.1176375158           3.2010795442       E       A'' (2)
   57    39           0.1224868549           3.3330367692      A1       A'  (1)
   58   168           0.1277228689           3.4755159553      A2       A'' (2)
   59    40           0.1374704338           3.7407606799      A1       A'  (1)
   60    41           0.1406747399           3.8279542815       E       A'  (1)
   61   169           0.1406747399           3.8279542821       E       A'' (2)
   62    42           0.1434298669           3.9029250993       E       A'  (1)
   63   170           0.1434298669           3.9029250996       E       A'' (2)
   64    43           0.1447368346           3.9384894981      A1       A'  (1)
   65   171           0.1525500581           4.1510981180      A2       A'' (2)
   66   172           0.1547504946           4.2109750391       E       A'' (2)
   67    44           0.1547504946           4.2109750394       E       A'  (1)
   68   173           0.1732850651           4.7153263438       E       A'' (2)
   69    45           0.1732850651           4.7153263447       E       A'  (1)
   70   174           0.1822226206           4.9585295924       E       A'' (2)
   71    46           0.1822226208           4.9585295996       E       A'  (1)
   72    47           0.2092992404           5.6953218762      A1       A'  (1)
   73   175           0.2320995561           6.3157500077       E       A'' (2)
   74    48           0.2320995562           6.3157500106       E       A'  (1)
   75    49           0.2374866434           6.4623401066      A1       A'  (1)
   76    50           0.2519221252           6.8551495352      A1       A'  (1)
   77   176           0.2543028324           6.9199318731       E       A'' (2)
   78    51           0.2543028326           6.9199318772       E       A'  (1)
   79    52           0.2715662242           7.3896926446      A1       A'  (1)
   80    53           0.3005811863           8.1792299045       E       A'  (1)
   81   177           0.3005811863           8.1792299046       E       A'' (2)
   82    54           0.3053106806           8.3079259864      A1       A'  (1)
   83   178           0.3218727300           8.7586022620       E       A'' (2)
   84    55           0.3218727300           8.7586022628       E       A'  (1)
   85    56           0.3286023506           8.9417245493      A1       A'  (1)
   86    57           0.3414305537           9.2907977021      A1       A'  (1)
   87   179           0.3565959816           9.7034699748      A2       A'' (2)
   88    58           0.3602220509           9.8021403372       E       A'  (1)
   89   180           0.3602220509           9.8021403374       E       A'' (2)
   90   181           0.3794479221          10.3253028875       E       A'' (2)
   91    59           0.3794479221          10.3253028894       E       A'  (1)
   92    60           0.3797914222          10.3346500018      A1       A'  (1)
   93   182           0.3857806664          10.4976256225       E       A'' (2)
   94    61           0.3857806665          10.4976256252       E       A'  (1)
   95    62           0.4174482788          11.3593451641      A1       A'  (1)
   96    63           0.4532050829          12.3323372704       E       A'  (1)
   97   183           0.4532050829          12.3323372708       E       A'' (2)
   98    64           0.4604304843          12.5289504369      A1       A'  (1)
   99   184           0.4883185648          13.2878236886       E       A'' (2)
  100    65           0.4883185649          13.2878236921       E       A'  (1)
  101   185           0.4951444343          13.4735650397      A2       A'' (2)
  102   186           0.5129253771          13.9574090926       E       A'' (2)
  103    66           0.5129253772          13.9574090938       E       A'  (1)
  104    67           0.5130802897          13.9616244790      A1       A'  (1)
  105    68           0.5524490647          15.0329033075       E       A'  (1)
  106   187           0.5524490647          15.0329033080       E       A'' (2)
  107    69           0.6017305642          16.3739210854       E       A'  (1)
  108   188           0.6017305642          16.3739210859       E       A'' (2)
  109    70           0.6090261862          16.5724450535      A1       A'  (1)
  110    71           0.6127242454          16.6730743611       E       A'  (1)
  111   189           0.6127242455          16.6730743631       E       A'' (2)
  112    72           0.6474950183          17.6192351914      A1       A'  (1)
  113   190           0.6675548578          18.1650911749       E       A'' (2)
  114    73           0.6675548578          18.1650911769       E       A'  (1)
  115    74           0.6745022473          18.3541392555      A1       A'  (1)
  116   191           0.6800259045          18.5044456095      A2       A'' (2)
  117   192           0.7290889823          19.8395198308       E       A'' (2)
  118    75           0.7290889823          19.8395198311       E       A'  (1)
  119    76           0.7407074259          20.1556737533      A1       A'  (1)
  120    77           0.7476295855          20.3440352925       E       A'  (1)
  121   193           0.7476295855          20.3440352928       E       A'' (2)
  122    78           0.7993008383          21.7500815618      A1       A'  (1)
  123    79           0.8356444487          22.7390414787       E       A'  (1)
  124   194           0.8356444489          22.7390414840       E       A'' (2)
  125    80           0.8930358510          24.3007409327      A1       A'  (1)
  126    81           0.9060656975          24.6553010808      A1       A'  (1)
  127    82           0.9143452670          24.8805996198       E       A'  (1)
  128   195           0.9143452670          24.8805996202       E       A'' (2)
  129   196           0.9380024958          25.5243455434       E       A'' (2)
  130    83           0.9380024958          25.5243455438       E       A'  (1)
  131    84           1.0089644271          27.4553178614       E       A'  (1)
  132   197           1.0089644272          27.4553178661       E       A'' (2)
  133    85           1.0168691980          27.6704176156      A1       A'  (1)
  134   198           1.0223321098          27.8190710015      A2       A'' (2)
  135    86           1.0444539763          28.4210375936      A1       A'  (1)
  136    87           1.0771089996          29.3096259520       E       A'  (1)
  137   199           1.0771089998          29.3096259561       E       A'' (2)
  138   200           1.1252904445          30.6207097220      A2       A'' (2)
  139    88           1.1308920740          30.7731378109      A1       A'  (1)
  140    89           1.1623715704          31.6297384557       E       A'  (1)
  141   201           1.1623715704          31.6297384560       E       A'' (2)
  142   202           1.1847335268          32.2382382248       E       A'' (2)
  143    90           1.1847335268          32.2382382250       E       A'  (1)
  144    91           1.1860290355          32.2734908095      A1       A'  (1)
  145   203           1.1956705284          32.5358491675      A2       A'' (2)
  146    92           1.2022755898          32.7155820272       E       A'  (1)
  147   204           1.2022755899          32.7155820304       E       A'' (2)
  148    93           1.2492305129          33.9932904412       E       A'  (1)
  149   205           1.2492305129          33.9932904418       E       A'' (2)
  150    94           1.2694412326          34.5432520836      A1       A'  (1)
  151    95           1.2832262890          34.9183625380       E       A'  (1)
  152   206           1.2832262891          34.9183625412       E       A'' (2)
  153   207           1.3175032743          35.8510867277       E       A'' (2)
  154    96           1.3175032743          35.8510867284       E       A'  (1)
  155    97           1.3465303642          36.6409539993      A1       A'  (1)
  156   208           1.3472852243          36.6614947879       E       A'' (2)
  157    98           1.3472852243          36.6614947880       E       A'  (1)
  158    99           1.4237199130          38.7413884058      A1       A'  (1)
  159   100           1.4296313027          38.9022454996       E       A'  (1)
  160   209           1.4296313031          38.9022455080       E       A'' (2)
  161   210           1.4477480633          39.3952276178       E       A'' (2)
  162   101           1.4477480633          39.3952276182       E       A'  (1)
  163   102           1.4741924615          40.1148162750      A1       A'  (1)
  164   103           1.4854662827          40.4215925454      A1       A'  (1)
  165   104           1.5227057419          41.4349297487       E       A'  (1)
  166   211           1.5227057419          41.4349297495       E       A'' (2)
  167   212           1.5547183610          42.3060374014      A2       A'' (2)
  168   105           1.5754991713          42.8715119963       E       A'  (1)
  169   213           1.5754991721          42.8715120194       E       A'' (2)
  170   106           1.6399082842          44.6241730617      A1       A'  (1)
  171   214           1.6537269745          45.0001987415      A2       A'' (2)
  172   107           1.6624654861          45.2379857316       E       A'  (1)
  173   215           1.6624654862          45.2379857343       E       A'' (2)
  174   108           1.6624994205          45.2389091338      A1       A'  (1)
  175   109           1.7089284822          46.5023081331       E       A'  (1)
  176   216           1.7089284824          46.5023081388       E       A'' (2)
  177   110           1.7235121709          46.8991504776       E       A'  (1)
  178   217           1.7235121710          46.8991504795       E       A'' (2)
  179   111           1.7672123849          48.0882937552       E       A'  (1)
  180   218           1.7672123849          48.0882937553       E       A'' (2)
  181   112           1.8454858656          50.2182234477       E       A'  (1)
  182   219           1.8454858663          50.2182234660       E       A'' (2)
  183   113           1.8568017318          50.5261438207       E       A'  (1)
  184   220           1.8568017319          50.5261438255       E       A'' (2)
  185   114           1.8731787495          50.9717851307      A1       A'  (1)
  186   221           1.8759317477          51.0466980189      A2       A'' (2)
  187   115           1.9096892959          51.9652876068      A1       A'  (1)
  188   222           1.9449235948          52.9240616228       E       A'' (2)
  189   116           1.9449235948          52.9240616229       E       A'  (1)
  190   117           1.9517373870          53.1094743327       E       A'  (1)
  191   223           1.9517373871          53.1094743366       E       A'' (2)
  192   118           2.0994413276          57.1287028907       E       A'  (1)
  193   224           2.0994413288          57.1287029226       E       A'' (2)
  194   119           2.1239834438          57.7965278235      A1       A'  (1)
  195   120           2.1793891379          59.3041934084      A1       A'  (1)
  196   121           2.2261234090          60.5758975788       E       A'  (1)
  197   225           2.2261234091          60.5758975812       E       A'' (2)
  198   122           2.2844333663          62.1625921820      A1       A'  (1)
  199   123           2.3586486568          64.1820929072       E       A'  (1)
  200   226           2.3586486568          64.1820929073       E       A'' (2)
  201   124           2.4743678939          67.3309734337      A1       A'  (1)
  202   227           2.6173396911          71.2214338219      A2       A'' (2)
  203   125           2.6806501345          72.9441985724       E       A'  (1)
  204   228           2.6806501349          72.9441985821       E       A'' (2)
  205   126           2.7676038499          75.3103294601       E       A'  (1)
  206   229           2.7676038500          75.3103294619       E       A'' (2)
  207   127           2.8576769831          77.7613440201      A1       A'  (1)
  208   128           2.9995306028          81.6213772530      A1       A'  (1)
  209   129           3.0842825492          83.9275949597       E       A'  (1)
  210   230           3.0842825492          83.9275949602       E       A'' (2)
  211   130           3.1256336132          85.0528146164      A1       A'  (1)
  212   131           3.2007939704          87.0980319128      A1       A'  (1)
  213   231           3.5924260259          97.7548819268      A2       A'' (2)
  214   132           3.5997096233          97.9530786878       E       A'  (1)
  215   232           3.5997096233          97.9530786884       E       A'' (2)
  216   133           3.6351335081          98.9170115991       E       A'  (1)
  217   233           3.6351335081          98.9170115997       E       A'' (2)
  218   134           3.6384061626          99.0060650549      A1       A'  (1)
  219   135           3.6472353829          99.2463203531       E       A'  (1)
  220   234           3.6472353829          99.2463203551       E       A'' (2)
  221   136           3.6612805656          99.6285092056       E       A'  (1)
  222   235           3.6612805656          99.6285092057       E       A'' (2)
  223   137           3.6707809859          99.8870287849      A1       A'  (1)
  224   138           3.7500688275         102.0445606425      A1       A'  (1)
  225   139           3.7573626467         102.2430355521       E       A'  (1)
  226   236           3.7573626467         102.2430355527       E       A'' (2)
  227   140           3.7743287323         102.7047062135       E       A'  (1)
  228   237           3.7743287324         102.7047062145       E       A'' (2)
  229   238           3.8010138562         103.4308453506       E       A'' (2)
  230   141           3.8010138562         103.4308453508       E       A'  (1)
  231   239           3.8289071310         104.1898599444      A2       A'' (2)
  232   142           4.0766359981         110.9309051269      A1       A'  (1)
  233   143           4.1295714670         112.3713524656       E       A'  (1)
  234   240           4.1295714670         112.3713524658       E       A'' (2)
  235   144           4.1678657632         113.4133932417      A1       A'  (1)
  236   145           4.2201693004         114.8366448467      A1       A'  (1)
  237   146           4.2701638264         116.1970650606       E       A'  (1)
  238   241           4.2701638264         116.1970650614       E       A'' (2)
  239   147           4.5072807404         122.6493443179       E       A'  (1)
  240   242           4.5072807404         122.6493443197       E       A'' (2)
  241   148           4.6315452510         126.0307535586      A1       A'  (1)
  242   243           4.6733308826         127.1677984024      A2       A'' (2)
  243   149           4.8227688768         131.2342129559      A1       A'  (1)


  VSCF finished.

 @CHECKOUT-I, Total execution time (CPU/WALL):      412.87/     165.39 seconds.
--executable xvscf finished with status     0 in      165.42 seconds (walltime).
 --invoking executable--
/opt/cfour/2.1/bin/xvtran
 @GETMEM-I,  Allocated   30517 MB of main memory.
  Full RHF integral transformation
  The following  17 MOs will be dropped:
    1  2  3  4  5  6  7  8  9 10 11 12 13 29 30 31 32
  There are 226 active molecular orbitals.
  Transformation of IIII integrals :
  1 pass through the AO integral file was required.
    69344102 AO integrals were read.
    51785110 MO integrals were written to HF2.
  Transformation of IIJJ integrals :
  1 pass through the AO integral file was required.
    48070034 AO integrals were read.
    38148993 MO integrals were written to HF2.
  Transformation of IJIJ integrals :
  1 pass through the AO integral file was required.
    94287643 AO integrals were read.
    74914812 MO integrals were written to HF2.
  Summary of active molecular orbitals: 
------------------------------------------------------------------------

  Index      Eigenvalue    Symmetry    Index      Eigenvalue    Symmetry
------------------------------------------------------------------------
     1        -1.5073793        1       114         2.0994413        1
     2        -1.5054252        1       115         2.1239834        1
     3        -1.5053515        1       116         2.1793891        1
     4        -0.8435650        1       117         2.2261234        1
     5        -0.8100614        1       118         2.2844334        1
     6        -0.8061446        1       119         2.3586487        1
     7        -0.7073051        1       120         2.4743679        1
     8        -0.6590297        1       121         2.6806501        1
     9        -0.6442071        1       122         2.7676038        1
    10        -0.6394252        1       123         2.8576770        1
    11        -0.6332455        1       124         2.9995306        1
    12        -0.6188502        1       125         3.0842825        1
    13        -0.6029823        1       126         3.1256336        1
    14        -0.4958148        1       127         3.2007940        1
    15        -0.3393709        1       128         3.5997096        1
    16        -1.5054252        2       129         3.6351335        1
    17        -0.8100614        2       130         3.6384062        1
    18        -0.6590297        2       131         3.6472354        1
    19        -0.6442071        2       132         3.6612806        1
    20        -0.6346282        2       133         3.6707810        1
    21        -0.6332455        2       134         3.7500688        1
    22        -0.6188502        2       135         3.7573626        1
    23        -0.4958148        2       136         3.7743287        1
    24        -0.3393709        2       137         3.8010139        1
[...]
         9                S             -0.00240075
         7                S              0.12629253
         9                S              0.12629253
         7                P              1.45137028
         9                P              1.45137028
         7                P              0.02597893
         9                P              0.02597893
         7                P              0.03355646
         9                P              0.03355646
         7                P              1.55015473
         9                P              1.55015473
         7                P             -0.03825631
         9                P             -0.03825631
         7                P              0.01967808
         9                P              0.01967808
         7                P              1.53790109
         9                P              1.53790109
         7                P             -0.15547447
         9                P             -0.15547447
         7                P              0.00272647
         9                P              0.00272647
         7                D              0.00174152
         9                D              0.00174152
         7                D              0.00036537
         9                D              0.00036537
         7                D              0.00160977
         9                D              0.00160977
         7                D              0.00348244
         9                D              0.00348244
         7                D              0.00481723
         9                D              0.00481723
         7                D              0.01043972
         9                D              0.01043972
         7                D              0.00235042
         9                D              0.00235042
         7                D              0.00482272
         9                D              0.00482272
         7                D              0.00745003
         9                D              0.00745003
         7                D              0.00458136
         9                D              0.00458136
         7                D              0.00497658
         9                D              0.00497658
         7                D              0.00540698
         9                D              0.00540698
         8                S              2.00287199
         8                S              1.84284579
         8                S             -0.00240075
         8                S              0.12629253
         8                P              1.45137028
         8                P              0.02597893
         8                P              0.03355646
         8                P              1.53177427
         8                P             -0.21408355
         8                P             -0.00574933
         8                P              1.55628156
         8                P              0.02035277
         8                P              0.02815388
         8                D              0.00174152
         8                D              0.00036537
         8                D              0.00642096
         8                D              0.01391836
         8                D              0.00000604
         8                D              0.00000379
         8                D              0.00703500
         8                D              0.00159986
         8                D              0.00595934
         8                D              0.01277985
         8                D              0.00178268
         8                D              0.00043135
 -------------------------------------------------------
  Population analysis by atoms (atomic charges).
 -------------------------------------------------------
     Z-matrix
      Center          Function          Population
 -------------------------------------------------------
         1                              26.17009654
         2                               5.40469160
         3                               5.54613473
         5                               5.54613473
         4                               5.54613473
         6                               8.43894076
         7                               8.44928897
         9                               8.44928897
         8                               8.44928897
 -------------------------------------------------------

  Mulliken population analysis of CCSD(T) density.
   Total density is analyzed.

  Population analysis by orbitals.
 -------------------------------------------------------
     Z-matrix
      Center          Function          Population
 -------------------------------------------------------
         1                S              1.99998755
         1                S              1.99965929
         1                S              2.04107439
         1                S              0.75352973
         1                S              0.02037310
         1                S              0.21895899
         1                S             -0.02956339
         1                P              1.99995270
         1                P              2.00545932
         1                P              0.44169713
         1                P             -0.58832446
         1                P              0.11307318
         1                P             -0.00093747
         1                P              1.99997721
         1                P              2.01940374
         1                P              0.51937427
         1                P             -0.41744725
         1                P              0.32141564
         1                P             -0.00172338
         1                P              1.99997721
         1                P              2.01940374
         1                P              0.51937427
         1                P             -0.41744725
         1                P              0.32141564
         1                P             -0.00172338
         1                D              0.37588332
         1                D              0.01428005
         1                D             -0.03445770
         1                D             -0.00017765
         1                D              1.57939639
         1                D              0.03051782
         1                D              0.00106742
         1                D             -0.00365283
         1                D              1.57939639
         1                D              0.03051782
         1                D              0.00106742
         1                D             -0.00365283
         1                D              0.79675928
         1                D              0.02062627
         1                D             -0.05131554
         1                D             -0.01209306
         1                D              1.40557689
         1                D              0.03411251
         1                D             -0.08540223
         1                D             -0.02409730
         1                D              0.79675928
         1                D              0.02062627
         1                D             -0.05131554
         1                D             -0.01209306
         1                F              0.00127809
         1                F              0.00365913
         1                F              0.00261566
         1                F              0.00621526
         1                F              0.00261566
         1                F              0.00621526
         1                F              0.00256529
         1                F              0.00628735
         1                F              0.00321344
         1                F              0.00708601
         1                F              0.00256529
         1                F              0.00628735
         1                F              0.00155739
         1                F              0.00422265
         1                F              0.00257444
         1                F              0.01569108
         1                F              0.00336435
         1                F              0.00956031
         1                F              0.00129409
         1                F              0.00626624
         2                S              2.00708129
         2                S              1.55803654
         2                S             -0.14221737
         2                S             -0.17531355
         2                P              1.12757032
         2                P             -0.32491991
         2                P             -0.06230157
         2                P              0.79136224
         2                P             -0.12931446
         2                P             -0.01962845
         2                P              0.79136224
         2                P             -0.12931446
         2                P             -0.01962845
         2                D              0.02417899
         2                D             -0.01109592
         2                D              0.05996248
         2                D              0.02978265
         2                D              0.05996248
         2                D              0.02978265
         2                D              0.00818331
         2                D             -0.00069986
         2                D              0.00427713
         2                D              0.00414824
         2                D              0.00818331
         2                D             -0.00069986
         3                S              2.00709571
         5                S              2.00709571
         3                S              1.60601243
         5                S              1.60601243
         3                S             -0.10134873
         5                S             -0.10134873
         3                S             -0.16495978
         5                S             -0.16495978
         3                P              0.72889570
         5                P              0.72889570
         3                P             -0.12555752
         5                P             -0.12555752
         3                P              0.00815618
         5                P              0.00815618
         3                P              0.88456210
         5                P              0.88456210
         3                P             -0.15639551
         5                P             -0.15639551
         3                P              0.01319842
         5                P              0.01319842
         3                P              1.06566350
         5                P              1.06566350
         3                P             -0.27537038
         5                P             -0.27537038
         3                P             -0.00766013
         5                P             -0.00766013
         3                D              0.00866511
         5                D              0.00866511
         3                D             -0.00270368
         5                D             -0.00270368
         3                D              0.01516830
         5                D              0.01516830
         3                D              0.00278030
         5                D              0.00278030
         3                D              0.03777814
         5                D              0.03777814
         3                D              0.00378468
         5                D              0.00378468
         3                D              0.02288776
         5                D              0.02288776
         3                D              0.01060167
         5                D              0.01060167
         3                D              0.03914003
         5                D              0.03914003
         3                D             -0.00114756
         5                D             -0.00114756
         3                D              0.03246097
         5                D              0.03246097
         3                D              0.00531066
         5                D              0.00531066
         4                S              2.00709571
         4                S              1.60601243
         4                S             -0.10134873
         4                S             -0.16495978
         4                P              0.72889570
         4                P             -0.12555752
         4                P              0.00815618
         4                P              1.15621420
         4                P             -0.33485782
         4                P             -0.01808941
         4                P              0.79401140
         4                P             -0.09690808
         4                P              0.02362770
         4                D              0.00866511
         4                D             -0.00270368
         4                D              0.04908306
         4                D              0.00428687
         4                D              0.00386339
         4                D              0.00227811
         4                D              0.02834047
         4                D             -0.01114364
         4                D              0.05695423
         4                D              0.02647004
         4                D              0.00919405
         4                D             -0.00056162
         6                S              2.00304009
         6                S              1.85682976
         6                S             -0.05061628
         6                S              0.11025114
         6                P              1.50100645
         6                P             -0.21624230
         6                P              0.00616816
         6                P              1.48478239
         6                P             -0.01337401
         6                P              0.03196562
         6                P              1.48478239
         6                P             -0.01337401
         6                P              0.03196562
         6                D              0.00906302
         6                D              0.00182973
         6                D              0.00962538
         6                D              0.01473657
         6                D              0.00962538
         6                D              0.01473657
         6                D              0.00407612
         6                D              0.00156541
         6                D              0.00362073
         6                D              0.00221596
         6                D              0.00407612
         6                D              0.00156541
         7                S              2.00302498
         9                S              2.00302498
         7                S              1.85838072
         9                S              1.85838072
         7                S             -0.04690271
         9                S             -0.04690271
         7                S              0.13914873
         9                S              0.13914873
         7                P              1.43310501
         9                P              1.43310501
         7                P             -0.01491299
         9                P             -0.01491299
         7                P              0.03273253
         9                P              0.03273253
         7                P              1.50880235
         9                P              1.50880235
         7                P             -0.06525097
         9                P             -0.06525097
         7                P              0.01898823
         9                P              0.01898823
         7                P              1.51708187
         9                P              1.51708187
         7                P             -0.16616827
         9                P             -0.16616827
         7                P              0.00317762
         9                P              0.00317762
         7                D              0.00402277
         9                D              0.00402277
         7                D              0.00164243
         9                D              0.00164243
         7                D              0.00509815
         9                D              0.00509815
         7                D              0.00511698
         9                D              0.00511698
         7                D              0.00809045
         9                D              0.00809045
         7                D              0.01086675
         9                D              0.01086675
         7                D              0.00473563
         9                D              0.00473563
         7                D              0.00558433
         9                D              0.00558433
         7                D              0.01069546
         9                D              0.01069546
         7                D              0.00527192
         9                D              0.00527192
         7                D              0.00719842
         9                D              0.00719842
         7                D              0.00576273
         9                D              0.00576273
         8                S              2.00302498
         8                S              1.85838072
         8                S             -0.04690271
         8                S              0.13914873
         8                P              1.43310501
         8                P             -0.01491299
         8                P              0.03273253
         8                P              1.52122162
         8                P             -0.21662692
         8                P             -0.00472769
         8                P              1.50466259
         8                P             -0.01479232
         8                P              0.02689354
         8                D              0.00402277
         8                D              0.00164243
         8                D              0.00958660
         8                D              0.01374163
         8                D              0.00360200
         8                D              0.00224210
         8                D              0.00900942
         8                D              0.00191148
         8                D              0.00953627
         8                D              0.01315280
         8                D              0.00408383
         8                D              0.00155469
 -------------------------------------------------------
  Population analysis by atoms (atomic charges).
 -------------------------------------------------------
     Z-matrix
      Center          Function          Population
 -------------------------------------------------------
         1                              26.36040416
         2                               5.48873998
         3                               5.65701836
         5                               5.65701836
         4                               5.65701836
         6                               8.29392144
         7                               8.29529311
         9                               8.29529311
         8                               8.29529311
 -------------------------------------------------------
 @CHECKOUT-I, Total execution time (CPU/WALL):        4.78/       0.26 seconds.
--executable xprops finished with status     0 in        0.29 seconds (walltime).
  The final electronic energy is     -1715.048731625671962 a.u. 
  This computation required                        66602.47 seconds (walltime).
Attempting to clean /scratch/jearias... save is False. TIME: Sat 30 Aug 2025 04:15:23 AM PDT
Total of 66603 seconds elapsed for this process.
