### Running on host: fes33

     Program PWSCF v.6.7MaX starts on  4Apr2024 at 15:46:15 

     This program is part of the open-source Quantum ESPRESSO suite
     for quantum simulation of materials; please cite
         "P. Giannozzi et al., J. Phys.:Condens. Matter 21 395502 (2009);
         "P. Giannozzi et al., J. Phys.:Condens. Matter 29 465901 (2017);
          URL http://www.quantum-espresso.org", 
     in publications or presentations arising from this work. More details at
     http://www.quantum-espresso.org/quote

     Parallel version (MPI), running on     3 processors

     MPI processes distributed on     1 nodes
     R & G space division:  proc/nbgrp/npool/nimage =       3
     Reading input from pwscf_kpoints-6.in

     Current dimensions of program PWSCF are:
     Max number of different atomic species (ntypx) = 10
     Max number of k-points (npk) =  40000
     Max angular momentum in pseudopotentials (lmaxx) =  3
     file Pb.pbe-dn-kjpaw_psl.0.2.2.UPF: wavefunction(s)  6S renormalized

     Subspace diagonalization in iterative solution of the eigenvalue problem:
     a serial algorithm will be used

     Found symmetry operation: I + (  0.0000  0.0000  0.5000)
     This is a supercell, fractional translations are disabled
     Message from routine setup:
     using ibrav=0 with symmetry is DISCOURAGED, use correct ibrav instead

     Parallelization info
     --------------------
     sticks:   dense  smooth     PW     G-vecs:    dense   smooth      PW
     Min        2471    2471    664               159923   159923   22210
     Max        2475    2475    665               159923   159923   22213
     Sum        7417    7417   1993               479769   479769   66635



     bravais-lattice index     =            0
     lattice parameter (alat)  =      24.1188  a.u.
     unit-cell volume          =   14030.3801 (a.u.)^3
     number of atoms/cell      =           40
     number of atomic types    =            3
     number of electrons       =       352.00
     number of Kohn-Sham states=          211
     kinetic-energy cutoff     =      40.0000  Ry
     charge density cutoff     =     160.0000  Ry
     scf convergence threshold =      8.0E-09
     mixing beta               =       0.4000
     number of iterations used =            8  plain     mixing
     Exchange-correlation= SLA  PW   PBX  PBC
                           (   1   4   3   4   0   0   0)

     celldm(1)=  24.118843  celldm(2)=   0.000000  celldm(3)=   0.000000
     celldm(4)=   0.000000  celldm(5)=   0.000000  celldm(6)=   0.000000

     crystal axes: (cart. coord. in units of alat)
               a(1) = (   1.000000   0.000000   0.000000 )  
               a(2) = (   0.000000   1.000000   0.000000 )  
               a(3) = (   0.000000   0.000000   1.000000 )  

     reciprocal axes: (cart. coord. in units 2 pi/alat)
               b(1) = (  1.000000  0.000000  0.000000 )  
               b(2) = (  0.000000  1.000000  0.000000 )  
               b(3) = (  0.000000  0.000000  1.000000 )  


     PseudoPot. # 1 for Cs read from file:
     ../../pseudo/Cs_pbe_v1.uspp.F.UPF
     MD5 check sum: 3476d69cb178dfad3ffaa59df4e07ca4
     Pseudo is Ultrasoft + core correction, Zval =  9.0
     Generated by new atomic code, or converted to UPF format
     Using radial grid of  905 points,  6 beta functions with: 
                l(1) =   0
                l(2) =   0
                l(3) =   1
                l(4) =   1
                l(5) =   2
                l(6) =   2
     Q(r) pseudized with  6 coefficients,  rinner =    1.500   1.500   1.500
                                                       1.500   1.500

     PseudoPot. # 2 for I  read from file:
     ../../pseudo/I.pbe-n-kjpaw_psl.0.2.UPF
     MD5 check sum: d4ef18d9c8f18dc85e5843bca1e50dc0
     Pseudo is Projector augmented-wave + core cor, Zval =  7.0
     Generated using "atomic" code by A. Dal Corso  v.5.0.99 svn rev. 10869
     Shape of augmentation charge: PSQ
     Using radial grid of 1247 points,  4 beta functions with: 
                l(1) =   0
                l(2) =   0
                l(3) =   1
                l(4) =   1
     Q(r) pseudized with 0 coefficients 


     PseudoPot. # 3 for Pb read from file:
     ../../pseudo/Pb.pbe-dn-kjpaw_psl.0.2.2.UPF
     MD5 check sum: 9d431e6316058b74ade52399a6cf67da
     Pseudo is Projector augmented-wave + core cor, Zval = 14.0
     Generated using "atomic" code by A. Dal Corso  v.5.0.99 svn rev. 10869
     Shape of augmentation charge: PSQ
     Using radial grid of 1281 points,  6 beta functions with: 
                l(1) =   0
                l(2) =   0
                l(3) =   1
                l(4) =   1
                l(5) =   2
                l(6) =   2
     Q(r) pseudized with 0 coefficients 


     atomic species   valence    mass     pseudopotential
        Cs             9.00   132.90545     Cs( 1.00)
        I              7.00   126.90447     I ( 1.00)
        Pb            14.00   207.20000     Pb( 1.00)

     48 Sym. Ops., with inversion, found


                                    s                        frac. trans.

      isym =  1     identity                                     

 cryst.   s( 1) = (     1          0          0      )
                  (     0          1          0      )
                  (     0          0          1      )

 cart.    s( 1) = (  1.0000000  0.0000000  0.0000000 )
                  (  0.0000000  1.0000000  0.0000000 )
                  (  0.0000000  0.0000000  1.0000000 )


      isym =  2     180 deg rotation - cart. axis [0,0,1]        

 cryst.   s( 2) = (    -1          0          0      )
                  (     0         -1          0      )
                  (     0          0          1      )

 cart.    s( 2) = ( -1.0000000  0.0000000  0.0000000 )
                  (  0.0000000 -1.0000000  0.0000000 )
                  (  0.0000000  0.0000000  1.0000000 )


      isym =  3     180 deg rotation - cart. axis [0,1,0]        

 cryst.   s( 3) = (    -1          0          0      )
                  (     0          1          0      )
                  (     0          0         -1      )

 cart.    s( 3) = ( -1.0000000  0.0000000  0.0000000 )
                  (  0.0000000  1.0000000  0.0000000 )
                  (  0.0000000  0.0000000 -1.0000000 )


      isym =  4     180 deg rotation - cart. axis [1,0,0]        

 cryst.   s( 4) = (     1          0          0      )
                  (     0         -1          0      )
                  (     0          0         -1      )

 cart.    s( 4) = (  1.0000000  0.0000000  0.0000000 )
                  (  0.0000000 -1.0000000  0.0000000 )
                  (  0.0000000  0.0000000 -1.0000000 )


      isym =  5     180 deg rotation - cart. axis [1,1,0]        

 cryst.   s( 5) = (     0          1          0      )
                  (     1          0          0      )
                  (     0          0         -1      )

 cart.    s( 5) = (  0.0000000  1.0000000  0.0000000 )
                  (  1.0000000  0.0000000  0.0000000 )
                  (  0.0000000  0.0000000 -1.0000000 )


      isym =  6     180 deg rotation - cart. axis [1,-1,0]       

 cryst.   s( 6) = (     0         -1          0      )
                  (    -1          0          0      )
                  (     0          0         -1      )

 cart.    s( 6) = (  0.0000000 -1.0000000  0.0000000 )
                  ( -1.0000000  0.0000000  0.0000000 )
                  (  0.0000000  0.0000000 -1.0000000 )


      isym =  7      90 deg rotation - cart. axis [0,0,-1]       

 cryst.   s( 7) = (     0         -1          0      )
                  (     1          0          0      )
                  (     0          0          1      )

 cart.    s( 7) = (  0.0000000  1.0000000  0.0000000 )
                  ( -1.0000000  0.0000000  0.0000000 )
                  (  0.0000000  0.0000000  1.0000000 )


      isym =  8      90 deg rotation - cart. axis [0,0,1]        

 cryst.   s( 8) = (     0          1          0      )
                  (    -1          0          0      )
                  (     0          0          1      )

 cart.    s( 8) = (  0.0000000 -1.0000000  0.0000000 )
                  (  1.0000000  0.0000000  0.0000000 )
                  (  0.0000000  0.0000000  1.0000000 )


      isym =  9     180 deg rotation - cart. axis [1,0,1]        

 cryst.   s( 9) = (     0          0          1      )
                  (     0         -1          0      )
                  (     1          0          0      )

 cart.    s( 9) = (  0.0000000  0.0000000  1.0000000 )
                  (  0.0000000 -1.0000000  0.0000000 )
                  (  1.0000000  0.0000000  0.0000000 )


      isym = 10     180 deg rotation - cart. axis [-1,0,1]       

 cryst.   s(10) = (     0          0         -1      )
                  (     0         -1          0      )
                  (    -1          0          0      )

 cart.    s(10) = (  0.0000000  0.0000000 -1.0000000 )
                  (  0.0000000 -1.0000000  0.0000000 )
                  ( -1.0000000  0.0000000  0.0000000 )


      isym = 11      90 deg rotation - cart. axis [0,1,0]        

 cryst.   s(11) = (     0          0         -1      )
                  (     0          1          0      )
                  (     1          0          0      )

 cart.    s(11) = (  0.0000000  0.0000000  1.0000000 )
                  (  0.0000000  1.0000000  0.0000000 )
                  ( -1.0000000  0.0000000  0.0000000 )


      isym = 12      90 deg rotation - cart. axis [0,-1,0]       

 cryst.   s(12) = (     0          0          1      )
                  (     0          1          0      )
                  (    -1          0          0      )

 cart.    s(12) = (  0.0000000  0.0000000 -1.0000000 )
                  (  0.0000000  1.0000000  0.0000000 )
                  (  1.0000000  0.0000000  0.0000000 )


      isym = 13     180 deg rotation - cart. axis [0,1,1]        

 cryst.   s(13) = (    -1          0          0      )
                  (     0          0          1      )
                  (     0          1          0      )

 cart.    s(13) = ( -1.0000000  0.0000000  0.0000000 )
                  (  0.0000000  0.0000000  1.0000000 )
                  (  0.0000000  1.0000000  0.0000000 )


      isym = 14     180 deg rotation - cart. axis [0,1,-1]       

 cryst.   s(14) = (    -1          0          0      )
                  (     0          0         -1      )
                  (     0         -1          0      )

 cart.    s(14) = ( -1.0000000  0.0000000  0.0000000 )
                  (  0.0000000  0.0000000 -1.0000000 )
                  (  0.0000000 -1.0000000  0.0000000 )


      isym = 15      90 deg rotation - cart. axis [-1,0,0]       

 cryst.   s(15) = (     1          0          0      )
                  (     0          0         -1      )
                  (     0          1          0      )

 cart.    s(15) = (  1.0000000  0.0000000  0.0000000 )
                  (  0.0000000  0.0000000  1.0000000 )
                  (  0.0000000 -1.0000000  0.0000000 )


      isym = 16      90 deg rotation - cart. axis [1,0,0]        

 cryst.   s(16) = (     1          0          0      )
                  (     0          0          1      )
                  (     0         -1          0      )

 cart.    s(16) = (  1.0000000  0.0000000  0.0000000 )
                  (  0.0000000  0.0000000 -1.0000000 )
                  (  0.0000000  1.0000000  0.0000000 )


      isym = 17     120 deg rotation - cart. axis [-1,-1,-1]     

 cryst.   s(17) = (     0          0          1      )
                  (     1          0          0      )
                  (     0          1          0      )

 cart.    s(17) = (  0.0000000  1.0000000  0.0000000 )
                  (  0.0000000  0.0000000  1.0000000 )
                  (  1.0000000  0.0000000  0.0000000 )


      isym = 18     120 deg rotation - cart. axis [-1,1,1]       

 cryst.   s(18) = (     0          0         -1      )
                  (    -1          0          0      )
                  (     0          1          0      )

 cart.    s(18) = (  0.0000000 -1.0000000  0.0000000 )
                  (  0.0000000  0.0000000  1.0000000 )
                  ( -1.0000000  0.0000000  0.0000000 )


      isym = 19     120 deg rotation - cart. axis [1,1,-1]       

 cryst.   s(19) = (     0          0         -1      )
                  (     1          0          0      )
                  (     0         -1          0      )

 cart.    s(19) = (  0.0000000  1.0000000  0.0000000 )
                  (  0.0000000  0.0000000 -1.0000000 )
                  ( -1.0000000  0.0000000  0.0000000 )


      isym = 20     120 deg rotation - cart. axis [1,-1,1]       

 cryst.   s(20) = (     0          0          1      )
                  (    -1          0          0      )
                  (     0         -1          0      )

 cart.    s(20) = (  0.0000000 -1.0000000  0.0000000 )
                  (  0.0000000  0.0000000 -1.0000000 )
                  (  1.0000000  0.0000000  0.0000000 )


      isym = 21     120 deg rotation - cart. axis [1,1,1]        

 cryst.   s(21) = (     0          1          0      )
                  (     0          0          1      )
                  (     1          0          0      )

 cart.    s(21) = (  0.0000000  0.0000000  1.0000000 )
                  (  1.0000000  0.0000000  0.0000000 )
                  (  0.0000000  1.0000000  0.0000000 )


      isym = 22     120 deg rotation - cart. axis [-1,1,-1]      

 cryst.   s(22) = (     0         -1          0      )
                  (     0          0         -1      )
                  (     1          0          0      )

 cart.    s(22) = (  0.0000000  0.0000000  1.0000000 )
                  ( -1.0000000  0.0000000  0.0000000 )
                  (  0.0000000 -1.0000000  0.0000000 )


      isym = 23     120 deg rotation - cart. axis [1,-1,-1]      

 cryst.   s(23) = (     0         -1          0      )
                  (     0          0          1      )
                  (    -1          0          0      )

 cart.    s(23) = (  0.0000000  0.0000000 -1.0000000 )
                  ( -1.0000000  0.0000000  0.0000000 )
                  (  0.0000000  1.0000000  0.0000000 )


      isym = 24     120 deg rotation - cart. axis [-1,-1,1]      

 cryst.   s(24) = (     0          1          0      )
                  (     0          0         -1      )
                  (    -1          0          0      )

 cart.    s(24) = (  0.0000000  0.0000000 -1.0000000 )
                  (  1.0000000  0.0000000  0.0000000 )
                  (  0.0000000 -1.0000000  0.0000000 )


      isym = 25     inversion                                    

 cryst.   s(25) = (    -1          0          0      )
                  (     0         -1          0      )
                  (     0          0         -1      )

 cart.    s(25) = ( -1.0000000  0.0000000  0.0000000 )
                  (  0.0000000 -1.0000000  0.0000000 )
                  (  0.0000000  0.0000000 -1.0000000 )


      isym = 26     inv. 180 deg rotation - cart. axis [0,0,1]   

 cryst.   s(26) = (     1          0          0      )
                  (     0          1          0      )
                  (     0          0         -1      )

 cart.    s(26) = (  1.0000000  0.0000000  0.0000000 )
                  (  0.0000000  1.0000000  0.0000000 )
                  (  0.0000000  0.0000000 -1.0000000 )


      isym = 27     inv. 180 deg rotation - cart. axis [0,1,0]   

 cryst.   s(27) = (     1          0          0      )
                  (     0         -1          0      )
                  (     0          0          1      )

 cart.    s(27) = (  1.0000000  0.0000000  0.0000000 )
                  (  0.0000000 -1.0000000  0.0000000 )
                  (  0.0000000  0.0000000  1.0000000 )


      isym = 28     inv. 180 deg rotation - cart. axis [1,0,0]   

 cryst.   s(28) = (    -1          0          0      )
                  (     0          1          0      )
                  (     0          0          1      )

 cart.    s(28) = ( -1.0000000  0.0000000  0.0000000 )
                  (  0.0000000  1.0000000  0.0000000 )
                  (  0.0000000  0.0000000  1.0000000 )


      isym = 29     inv. 180 deg rotation - cart. axis [1,1,0]   

 cryst.   s(29) = (     0         -1          0      )
                  (    -1          0          0      )
                  (     0          0          1      )

 cart.    s(29) = (  0.0000000 -1.0000000  0.0000000 )
                  ( -1.0000000  0.0000000  0.0000000 )
                  (  0.0000000  0.0000000  1.0000000 )


      isym = 30     inv. 180 deg rotation - cart. axis [1,-1,0]  

 cryst.   s(30) = (     0          1          0      )
                  (     1          0          0      )
                  (     0          0          1      )

 cart.    s(30) = (  0.0000000  1.0000000  0.0000000 )
                  (  1.0000000  0.0000000  0.0000000 )
                  (  0.0000000  0.0000000  1.0000000 )


      isym = 31     inv.  90 deg rotation - cart. axis [0,0,-1]  

 cryst.   s(31) = (     0          1          0      )
                  (    -1          0          0      )
                  (     0          0         -1      )

 cart.    s(31) = (  0.0000000 -1.0000000  0.0000000 )
                  (  1.0000000  0.0000000  0.0000000 )
                  (  0.0000000  0.0000000 -1.0000000 )


      isym = 32     inv.  90 deg rotation - cart. axis [0,0,1]   

 cryst.   s(32) = (     0         -1          0      )
                  (     1          0          0      )
                  (     0          0         -1      )

 cart.    s(32) = (  0.0000000  1.0000000  0.0000000 )
                  ( -1.0000000  0.0000000  0.0000000 )
                  (  0.0000000  0.0000000 -1.0000000 )


      isym = 33     inv. 180 deg rotation - cart. axis [1,0,1]   

 cryst.   s(33) = (     0          0         -1      )
                  (     0          1          0      )
                  (    -1          0          0      )

 cart.    s(33) = (  0.0000000  0.0000000 -1.0000000 )
                  (  0.0000000  1.0000000  0.0000000 )
                  ( -1.0000000  0.0000000  0.0000000 )


      isym = 34     inv. 180 deg rotation - cart. axis [-1,0,1]  

 cryst.   s(34) = (     0          0          1      )
                  (     0          1          0      )
                  (     1          0          0      )

 cart.    s(34) = (  0.0000000  0.0000000  1.0000000 )
                  (  0.0000000  1.0000000  0.0000000 )
                  (  1.0000000  0.0000000  0.0000000 )


      isym = 35     inv.  90 deg rotation - cart. axis [0,1,0]   

 cryst.   s(35) = (     0          0          1      )
                  (     0         -1          0      )
                  (    -1          0          0      )

 cart.    s(35) = (  0.0000000  0.0000000 -1.0000000 )
                  (  0.0000000 -1.0000000  0.0000000 )
                  (  1.0000000  0.0000000  0.0000000 )


      isym = 36     inv.  90 deg rotation - cart. axis [0,-1,0]  

 cryst.   s(36) = (     0          0         -1      )
                  (     0         -1          0      )
                  (     1          0          0      )

 cart.    s(36) = (  0.0000000  0.0000000  1.0000000 )
                  (  0.0000000 -1.0000000  0.0000000 )
                  ( -1.0000000  0.0000000  0.0000000 )


      isym = 37     inv. 180 deg rotation - cart. axis [0,1,1]   

 cryst.   s(37) = (     1          0          0      )
                  (     0          0         -1      )
                  (     0         -1          0      )

 cart.    s(37) = (  1.0000000  0.0000000  0.0000000 )
                  (  0.0000000  0.0000000 -1.0000000 )
                  (  0.0000000 -1.0000000  0.0000000 )


      isym = 38     inv. 180 deg rotation - cart. axis [0,1,-1]  

 cryst.   s(38) = (     1          0          0      )
                  (     0          0          1      )
                  (     0          1          0      )

 cart.    s(38) = (  1.0000000  0.0000000  0.0000000 )
                  (  0.0000000  0.0000000  1.0000000 )
                  (  0.0000000  1.0000000  0.0000000 )


      isym = 39     inv.  90 deg rotation - cart. axis [-1,0,0]  

 cryst.   s(39) = (    -1          0          0      )
                  (     0          0          1      )
                  (     0         -1          0      )

 cart.    s(39) = ( -1.0000000  0.0000000  0.0000000 )
                  (  0.0000000  0.0000000 -1.0000000 )
                  (  0.0000000  1.0000000  0.0000000 )


      isym = 40     inv.  90 deg rotation - cart. axis [1,0,0]   

 cryst.   s(40) = (    -1          0          0      )
                  (     0          0         -1      )
                  (     0          1          0      )

 cart.    s(40) = ( -1.0000000  0.0000000  0.0000000 )
                  (  0.0000000  0.0000000  1.0000000 )
                  (  0.0000000 -1.0000000  0.0000000 )


      isym = 41     inv. 120 deg rotation - cart. axis [-1,-1,-1]

 cryst.   s(41) = (     0          0         -1      )
                  (    -1          0          0      )
                  (     0         -1          0      )

 cart.    s(41) = (  0.0000000 -1.0000000  0.0000000 )
                  (  0.0000000  0.0000000 -1.0000000 )
                  ( -1.0000000  0.0000000  0.0000000 )


      isym = 42     inv. 120 deg rotation - cart. axis [-1,1,1]  

 cryst.   s(42) = (     0          0          1      )
                  (     1          0          0      )
                  (     0         -1          0      )

 cart.    s(42) = (  0.0000000  1.0000000  0.0000000 )
                  (  0.0000000  0.0000000 -1.0000000 )
                  (  1.0000000  0.0000000  0.0000000 )


      isym = 43     inv. 120 deg rotation - cart. axis [1,1,-1]  

 cryst.   s(43) = (     0          0          1      )
                  (    -1          0          0      )
                  (     0          1          0      )

 cart.    s(43) = (  0.0000000 -1.0000000  0.0000000 )
                  (  0.0000000  0.0000000  1.0000000 )
                  (  1.0000000  0.0000000  0.0000000 )


      isym = 44     inv. 120 deg rotation - cart. axis [1,-1,1]  

 cryst.   s(44) = (     0          0         -1      )
                  (     1          0          0      )
                  (     0          1          0      )

 cart.    s(44) = (  0.0000000  1.0000000  0.0000000 )
                  (  0.0000000  0.0000000  1.0000000 )
                  ( -1.0000000  0.0000000  0.0000000 )


      isym = 45     inv. 120 deg rotation - cart. axis [1,1,1]   

 cryst.   s(45) = (     0         -1          0      )
                  (     0          0         -1      )
                  (    -1          0          0      )

 cart.    s(45) = (  0.0000000  0.0000000 -1.0000000 )
                  ( -1.0000000  0.0000000  0.0000000 )
                  (  0.0000000 -1.0000000  0.0000000 )


      isym = 46     inv. 120 deg rotation - cart. axis [-1,1,-1] 

 cryst.   s(46) = (     0          1          0      )
                  (     0          0          1      )
                  (    -1          0          0      )

 cart.    s(46) = (  0.0000000  0.0000000 -1.0000000 )
                  (  1.0000000  0.0000000  0.0000000 )
                  (  0.0000000  1.0000000  0.0000000 )


      isym = 47     inv. 120 deg rotation - cart. axis [1,-1,-1] 

 cryst.   s(47) = (     0          1          0      )
                  (     0          0         -1      )
                  (     1          0          0      )

 cart.    s(47) = (  0.0000000  0.0000000  1.0000000 )
                  (  1.0000000  0.0000000  0.0000000 )
                  (  0.0000000 -1.0000000  0.0000000 )


      isym = 48     inv. 120 deg rotation - cart. axis [-1,-1,1] 

 cryst.   s(48) = (     0         -1          0      )
                  (     0          0          1      )
                  (     1          0          0      )

 cart.    s(48) = (  0.0000000  0.0000000  1.0000000 )
                  ( -1.0000000  0.0000000  0.0000000 )
                  (  0.0000000  1.0000000  0.0000000 )


   Cartesian axes

     site n.     atom                  positions (alat units)
         1           Cs  tau(   1) = (   0.2500001   0.2500001   0.2500001  )
         2           Cs  tau(   2) = (   0.2500001   0.2500001   0.7499999  )
         3           Cs  tau(   3) = (   0.2500001   0.7499999   0.2500001  )
         4           Cs  tau(   4) = (   0.2500001   0.7499999   0.7499999  )
         5           Cs  tau(   5) = (   0.7499999   0.2500001   0.2500001  )
         6           Cs  tau(   6) = (   0.7499999   0.2500001   0.7499999  )
         7           Cs  tau(   7) = (   0.7499999   0.7499999   0.2500001  )
         8           Cs  tau(   8) = (   0.7499999   0.7499999   0.7499999  )
         9           Pb  tau(   9) = (   0.0000000   0.0000000   0.0000000  )
        10           Pb  tau(  10) = (   0.0000000   0.0000000   0.5000000  )
        11           Pb  tau(  11) = (   0.0000000   0.5000000   0.0000000  )
        12           Pb  tau(  12) = (   0.0000000   0.5000000   0.5000000  )
        13           Pb  tau(  13) = (   0.5000000   0.0000000   0.0000000  )
        14           Pb  tau(  14) = (   0.5000000   0.0000000   0.5000000  )
        15           Pb  tau(  15) = (   0.5000000   0.5000000   0.0000000  )
        16           Pb  tau(  16) = (   0.5000000   0.5000000   0.5000000  )
        17           I   tau(  17) = (   0.0000000   0.0000000   0.2500016  )
        18           I   tau(  18) = (   0.0000000   0.0000000   0.7499984  )
        19           I   tau(  19) = (   0.0000000   0.5000000   0.2500017  )
        20           I   tau(  20) = (   0.0000000   0.5000000   0.7499983  )
        21           I   tau(  21) = (   0.5000000   0.0000000   0.2500017  )
        22           I   tau(  22) = (   0.5000000   0.0000000   0.7499983  )
        23           I   tau(  23) = (   0.5000000   0.5000000   0.2500017  )
        24           I   tau(  24) = (   0.5000000   0.5000000   0.7499983  )
        25           I   tau(  25) = (   0.0000000   0.2500016   0.0000000  )
        26           I   tau(  26) = (   0.0000000   0.2500017   0.5000000  )
        27           I   tau(  27) = (   0.0000000   0.7499984   0.0000000  )
        28           I   tau(  28) = (   0.0000000   0.7499983   0.5000000  )
        29           I   tau(  29) = (   0.5000000   0.2500017   0.0000000  )
        30           I   tau(  30) = (   0.5000000   0.2500017   0.5000000  )
        31           I   tau(  31) = (   0.5000000   0.7499983   0.0000000  )
        32           I   tau(  32) = (   0.5000000   0.7499983   0.5000000  )
        33           I   tau(  33) = (   0.2500016   0.0000000   0.0000000  )
        34           I   tau(  34) = (   0.2500017   0.0000000   0.5000000  )
        35           I   tau(  35) = (   0.2500017   0.5000000   0.0000000  )
        36           I   tau(  36) = (   0.2500017   0.5000000   0.5000000  )
        37           I   tau(  37) = (   0.7499984   0.0000000   0.0000000  )
        38           I   tau(  38) = (   0.7499983   0.0000000   0.5000000  )
        39           I   tau(  39) = (   0.7499983   0.5000000   0.0000000  )
        40           I   tau(  40) = (   0.7499983   0.5000000   0.5000000  )

   Crystallographic axes

     site n.     atom                  positions (cryst. coord.)
         1           Cs  tau(   1) = (  0.2500001  0.2500001  0.2500001  )
         2           Cs  tau(   2) = (  0.2500001  0.2500001  0.7499999  )
         3           Cs  tau(   3) = (  0.2500001  0.7499999  0.2500001  )
         4           Cs  tau(   4) = (  0.2500001  0.7499999  0.7499999  )
         5           Cs  tau(   5) = (  0.7499999  0.2500001  0.2500001  )
         6           Cs  tau(   6) = (  0.7499999  0.2500001  0.7499999  )
         7           Cs  tau(   7) = (  0.7499999  0.7499999  0.2500001  )
         8           Cs  tau(   8) = (  0.7499999  0.7499999  0.7499999  )
         9           Pb  tau(   9) = (  0.0000000  0.0000000  0.0000000  )
        10           Pb  tau(  10) = (  0.0000000  0.0000000  0.5000000  )
        11           Pb  tau(  11) = (  0.0000000  0.5000000  0.0000000  )
        12           Pb  tau(  12) = (  0.0000000  0.5000000  0.5000000  )
        13           Pb  tau(  13) = (  0.5000000  0.0000000  0.0000000  )
        14           Pb  tau(  14) = (  0.5000000  0.0000000  0.5000000  )
        15           Pb  tau(  15) = (  0.5000000  0.5000000  0.0000000  )
        16           Pb  tau(  16) = (  0.5000000  0.5000000  0.5000000  )
        17           I   tau(  17) = (  0.0000000  0.0000000  0.2500016  )
        18           I   tau(  18) = (  0.0000000  0.0000000  0.7499984  )
        19           I   tau(  19) = (  0.0000000  0.5000000  0.2500017  )
        20           I   tau(  20) = (  0.0000000  0.5000000  0.7499983  )
        21           I   tau(  21) = (  0.5000000  0.0000000  0.2500017  )
        22           I   tau(  22) = (  0.5000000  0.0000000  0.7499983  )
        23           I   tau(  23) = (  0.5000000  0.5000000  0.2500017  )
        24           I   tau(  24) = (  0.5000000  0.5000000  0.7499983  )
        25           I   tau(  25) = (  0.0000000  0.2500016  0.0000000  )
        26           I   tau(  26) = (  0.0000000  0.2500017  0.5000000  )
        27           I   tau(  27) = (  0.0000000  0.7499984  0.0000000  )
        28           I   tau(  28) = (  0.0000000  0.7499983  0.5000000  )
        29           I   tau(  29) = (  0.5000000  0.2500017  0.0000000  )
        30           I   tau(  30) = (  0.5000000  0.2500017  0.5000000  )
        31           I   tau(  31) = (  0.5000000  0.7499983  0.0000000  )
        32           I   tau(  32) = (  0.5000000  0.7499983  0.5000000  )
        33           I   tau(  33) = (  0.2500016  0.0000000  0.0000000  )
        34           I   tau(  34) = (  0.2500017  0.0000000  0.5000000  )
        35           I   tau(  35) = (  0.2500017  0.5000000  0.0000000  )
        36           I   tau(  36) = (  0.2500017  0.5000000  0.5000000  )
        37           I   tau(  37) = (  0.7499984  0.0000000  0.0000000  )
        38           I   tau(  38) = (  0.7499983  0.0000000  0.5000000  )
        39           I   tau(  39) = (  0.7499983  0.5000000  0.0000000  )
        40           I   tau(  40) = (  0.7499983  0.5000000  0.5000000  )

     number of k points=    20  Marzari-Vanderbilt smearing, width (Ry)=  0.0147
                       cart. coord. in units 2pi/alat
        k(    1) = (   0.0000000   0.0000000   0.0000000), wk =   0.0092593
        k(    2) = (   0.0000000   0.0000000   0.1666667), wk =   0.0555556
        k(    3) = (   0.0000000   0.0000000   0.3333333), wk =   0.0555556
        k(    4) = (   0.0000000   0.0000000  -0.5000000), wk =   0.0277778
        k(    5) = (   0.0000000   0.1666667   0.1666667), wk =   0.1111111
        k(    6) = (   0.0000000   0.1666667   0.3333333), wk =   0.2222222
        k(    7) = (   0.0000000   0.1666667  -0.5000000), wk =   0.1111111
        k(    8) = (   0.0000000   0.3333333   0.3333333), wk =   0.1111111
        k(    9) = (   0.0000000   0.3333333  -0.5000000), wk =   0.1111111
        k(   10) = (   0.0000000  -0.5000000  -0.5000000), wk =   0.0277778
        k(   11) = (   0.1666667   0.1666667   0.1666667), wk =   0.0740741
        k(   12) = (   0.1666667   0.1666667   0.3333333), wk =   0.2222222
        k(   13) = (   0.1666667   0.1666667  -0.5000000), wk =   0.1111111
        k(   14) = (   0.1666667   0.3333333   0.3333333), wk =   0.2222222
        k(   15) = (   0.1666667   0.3333333  -0.5000000), wk =   0.2222222
        k(   16) = (   0.1666667  -0.5000000  -0.5000000), wk =   0.0555556
        k(   17) = (   0.3333333   0.3333333   0.3333333), wk =   0.0740741
        k(   18) = (   0.3333333   0.3333333  -0.5000000), wk =   0.1111111
        k(   19) = (   0.3333333  -0.5000000  -0.5000000), wk =   0.0555556
        k(   20) = (  -0.5000000  -0.5000000  -0.5000000), wk =   0.0092593

                       cryst. coord.
        k(    1) = (   0.0000000   0.0000000   0.0000000), wk =   0.0092593
        k(    2) = (   0.0000000   0.0000000   0.1666667), wk =   0.0555556
        k(    3) = (   0.0000000   0.0000000   0.3333333), wk =   0.0555556
        k(    4) = (   0.0000000   0.0000000  -0.5000000), wk =   0.0277778
        k(    5) = (   0.0000000   0.1666667   0.1666667), wk =   0.1111111
        k(    6) = (   0.0000000   0.1666667   0.3333333), wk =   0.2222222
        k(    7) = (   0.0000000   0.1666667  -0.5000000), wk =   0.1111111
        k(    8) = (   0.0000000   0.3333333   0.3333333), wk =   0.1111111
        k(    9) = (   0.0000000   0.3333333  -0.5000000), wk =   0.1111111
        k(   10) = (   0.0000000  -0.5000000  -0.5000000), wk =   0.0277778
        k(   11) = (   0.1666667   0.1666667   0.1666667), wk =   0.0740741
        k(   12) = (   0.1666667   0.1666667   0.3333333), wk =   0.2222222
        k(   13) = (   0.1666667   0.1666667  -0.5000000), wk =   0.1111111
        k(   14) = (   0.1666667   0.3333333   0.3333333), wk =   0.2222222
        k(   15) = (   0.1666667   0.3333333  -0.5000000), wk =   0.2222222
        k(   16) = (   0.1666667  -0.5000000  -0.5000000), wk =   0.0555556
        k(   17) = (   0.3333333   0.3333333   0.3333333), wk =   0.0740741
        k(   18) = (   0.3333333   0.3333333  -0.5000000), wk =   0.1111111
        k(   19) = (   0.3333333  -0.5000000  -0.5000000), wk =   0.0555556
        k(   20) = (  -0.5000000  -0.5000000  -0.5000000), wk =   0.0092593

     Dense  grid:   479769 G-vectors     FFT dimensions: ( 100, 100, 100)

     Dynamical RAM for                 wfc:      64.32 MB

     Dynamical RAM for     wfc (w. buffer):    1350.81 MB

     Dynamical RAM for           str. fact:       7.32 MB

     Dynamical RAM for           local pot:       0.00 MB

     Dynamical RAM for          nlocal pot:     146.33 MB

     Dynamical RAM for                qrad:       3.05 MB

     Dynamical RAM for          rho,v,vnew:      15.10 MB

     Dynamical RAM for               rhoin:       5.03 MB

     Dynamical RAM for            rho*nmix:      39.04 MB

     Dynamical RAM for           G-vectors:      10.37 MB

     Dynamical RAM for          h,s,v(r/c):       8.15 MB

     Dynamical RAM for          <psi|beta>:       1.55 MB

     Dynamical RAM for                 psi:     128.65 MB

     Dynamical RAM for                hpsi:     128.65 MB

     Dynamical RAM for                spsi:     128.65 MB

     Dynamical RAM for      wfcinit/wfcrot:     167.54 MB

     Dynamical RAM for           addusdens:     512.45 MB

     Dynamical RAM for          addusforce:     626.01 MB

     Dynamical RAM for         addusstress:     490.49 MB

     Estimated static dynamical RAM per process >       1.56 GB

     Estimated max dynamical RAM per process >       2.17 GB

     Estimated total dynamical RAM >       6.52 GB

     Check: negative core charge=   -0.000001

     Initial potential from superposition of free atoms

     starting charge  351.66429, renormalised to  352.00000
     Starting wfcs are  272 randomized atomic wfcs
     Checking if some PAW data can be deallocated... 
       PAW data deallocated on    1 nodes for type:  2
       PAW data deallocated on    1 nodes for type:  3

     total cpu time spent up to now is     1069.7 secs

     Self-consistent Calculation

     iteration #  1     ecut=    40.00 Ry     beta= 0.40
     Davidson diagonalization with overlap
     ethr =  1.00E-02,  avg # of iterations =  2.9

     Threshold (ethr) on eigenvalues was too large:
     Diagonalizing with lowered threshold

     Davidson diagonalization with overlap
     ethr =  2.56E-04,  avg # of iterations =  8.1

     total cpu time spent up to now is     6954.7 secs

     total energy              =  -16565.69436233 Ry
     estimated scf accuracy    <       0.82191090 Ry

     iteration #  2     ecut=    40.00 Ry     beta= 0.40
     Davidson diagonalization with overlap
     ethr =  2.33E-04,  avg # of iterations =  2.1

     total cpu time spent up to now is     9783.9 secs

     total energy              =  -16565.82383816 Ry
     estimated scf accuracy    <       0.05287218 Ry

     iteration #  3     ecut=    40.00 Ry     beta= 0.40
     Davidson diagonalization with overlap
     c_bands:  3 eigenvalues not converged
     c_bands:  1 eigenvalues not converged
     ethr =  1.50E-05,  avg # of iterations = 12.4

     total cpu time spent up to now is    14167.0 secs

     total energy              =  -16565.85305878 Ry
     estimated scf accuracy    <       0.01605410 Ry

     iteration #  4     ecut=    40.00 Ry     beta= 0.40
     Davidson diagonalization with overlap
     c_bands:  2 eigenvalues not converged
     ethr =  4.56E-06,  avg # of iterations =  7.1

     total cpu time spent up to now is    16886.5 secs

     total energy              =  -16565.85490831 Ry
     estimated scf accuracy    <       0.00078029 Ry

     iteration #  5     ecut=    40.00 Ry     beta= 0.40
     Davidson diagonalization with overlap
     c_bands:  1 eigenvalues not converged
     ethr =  2.22E-07,  avg # of iterations =  7.1

     total cpu time spent up to now is    21332.5 secs

     total energy              =  -16565.85543754 Ry
     estimated scf accuracy    <       0.00035907 Ry

     iteration #  6     ecut=    40.00 Ry     beta= 0.40
     Davidson diagonalization with overlap
     ethr =  1.02E-07,  avg # of iterations =  1.6

     total cpu time spent up to now is    23512.1 secs

     total energy              =  -16565.85540598 Ry
     estimated scf accuracy    <       0.00018649 Ry

     iteration #  7     ecut=    40.00 Ry     beta= 0.40
     Davidson diagonalization with overlap
     ethr =  5.30E-08,  avg # of iterations =  4.0

     total cpu time spent up to now is    26459.6 secs

     total energy              =  -16565.85544924 Ry
     estimated scf accuracy    <       0.00005044 Ry

     iteration #  8     ecut=    40.00 Ry     beta= 0.40
     Davidson diagonalization with overlap
     ethr =  1.43E-08,  avg # of iterations =  3.7

     total cpu time spent up to now is    28786.6 secs

     total energy              =  -16565.85544574 Ry
     estimated scf accuracy    <       0.00003117 Ry

     iteration #  9     ecut=    40.00 Ry     beta= 0.40
     Davidson diagonalization with overlap
     ethr =  8.86E-09,  avg # of iterations =  3.1

     total cpu time spent up to now is    31273.2 secs

     total energy              =  -16565.85544795 Ry
     estimated scf accuracy    <       0.00000270 Ry

     iteration # 10     ecut=    40.00 Ry     beta= 0.40
     Davidson diagonalization with overlap
     ethr =  7.66E-10,  avg # of iterations =  5.0

     total cpu time spent up to now is    35323.4 secs

     total energy              =  -16565.85545050 Ry
     estimated scf accuracy    <       0.00000391 Ry

     iteration # 11     ecut=    40.00 Ry     beta= 0.40
     Davidson diagonalization with overlap
     ethr =  7.66E-10,  avg # of iterations =  2.0

     total cpu time spent up to now is    37686.4 secs

     total energy              =  -16565.85545037 Ry
     estimated scf accuracy    <       0.00000162 Ry

     iteration # 12     ecut=    40.00 Ry     beta= 0.40
     Davidson diagonalization with overlap
     ethr =  4.61E-10,  avg # of iterations =  1.9

     total cpu time spent up to now is    40020.5 secs

     total energy              =  -16565.85545081 Ry
     estimated scf accuracy    <       0.00000073 Ry

     iteration # 13     ecut=    40.00 Ry     beta= 0.40
     Davidson diagonalization with overlap
     ethr =  2.06E-10,  avg # of iterations =  2.5

     total cpu time spent up to now is    42588.1 secs

     total energy              =  -16565.85545046 Ry
     estimated scf accuracy    <       0.00000183 Ry

     iteration # 14     ecut=    40.00 Ry     beta= 0.40
     Davidson diagonalization with overlap
     ethr =  2.06E-10,  avg # of iterations =  2.1

     total cpu time spent up to now is    45021.7 secs

     total energy              =  -16565.85545037 Ry
     estimated scf accuracy    <       0.00000050 Ry

     iteration # 15     ecut=    40.00 Ry     beta= 0.40
     Davidson diagonalization with overlap
     ethr =  1.41E-10,  avg # of iterations =  4.0

     total cpu time spent up to now is    47699.3 secs

     total energy              =  -16565.85545043 Ry
     estimated scf accuracy    <       0.00000002 Ry

     iteration # 16     ecut=    40.00 Ry     beta= 0.40
     Davidson diagonalization with overlap
     ethr =  6.79E-12,  avg # of iterations =  6.6

     total cpu time spent up to now is    51262.9 secs

     End of self-consistent calculation

          k = 0.0000 0.0000 0.0000 ( 60005 PWs)   bands (ev):

   -18.6027 -18.6025 -18.6025 -18.6025 -18.6023 -18.6023 -18.6023 -18.6021
   -14.0197 -14.0197 -14.0197 -14.0197 -14.0197 -14.0144 -14.0144 -14.0143
   -14.0090 -14.0090 -14.0090 -14.0035 -14.0035 -14.0034 -14.0034 -14.0034
   -13.9687 -13.9687 -13.9687 -13.9685 -13.9685 -13.9685 -13.9684 -13.9684
   -13.9684 -13.9684 -13.9684 -13.9684 -13.9682 -13.9682 -13.9682 -13.9682
   -13.9682 -13.9682 -13.9680 -13.9680 -13.9680 -13.9680 -13.9680 -13.9680
    -9.3534  -9.1550  -9.1550  -9.1550  -8.9108  -8.9108  -8.9108  -8.8443
    -8.8443  -8.8443  -8.8443  -8.8443  -8.8443  -8.8438  -8.8438  -8.8438
    -8.8387  -8.8387  -8.8387  -8.6172  -8.6172  -8.6151  -8.6151  -8.6151
    -5.7337  -5.3912  -5.3912  -5.3912  -5.3782  -5.3782  -5.3782  -5.3780
    -5.3780  -5.3780  -5.3780  -5.3780  -5.3780  -5.3742  -5.3742  -5.3742
    -5.3742  -5.3742  -5.3742  -5.3709  -5.3709  -5.3709  -5.3705  -5.3705
    -5.3705  -5.2020  -5.2020  -5.2020  -4.6955  -4.6955  -4.6955  -4.1849
    -0.6542  -0.6542  -0.6542  -0.5535  -0.5535  -0.5535  -0.5535  -0.5535
    -0.5535  -0.4212  -0.4212  -0.4212   0.6156   0.6156   0.6156   0.7473
     0.7473   0.7473   0.8951   0.8951   0.8951   1.2152   1.2152   1.2152
     1.2152   1.2152   1.2152   1.3155   1.3155   1.3155   1.3155   1.3155
     1.3155   1.3639   1.3639   1.3639   1.3639   1.3639   1.3639   1.4031
     1.4031   1.4031   1.4106   1.4106   1.4296   1.4296   1.4296   1.5586
     1.5586   1.5586   1.5802   1.5802   1.5802   1.5802   1.5802   1.5802
     1.6660   1.6660   1.6660   1.8645   1.8645   1.8645   2.0594   2.0594
     2.0594   2.0716   2.0716   2.0716   2.2978   2.2978   2.2978   2.7321
     4.1458   4.1458   4.1458   4.5738   4.5738   4.5738   4.5738   4.5738
     4.5738   4.9046   4.9046   4.9046   5.9133   6.7649   6.9904   6.9904
     7.3372   7.3372   7.3372   7.3852   7.3852   7.3852   7.5080   7.5080
     7.5080   7.6153   7.6154   7.6154   7.7771   7.7772   7.7772   7.8648
     7.8648   7.8648   7.8648

     occupation numbers 
     1.0000   1.0000   1.0000   1.0000   1.0000   1.0000   1.0000   1.0000
     1.0000   1.0000   1.0000   1.0000   1.0000   1.0000   1.0000   1.0000
     1.0000   1.0000   1.0000   1.0000   1.0000   1.0000   1.0000   1.0000
     1.0000   1.0000   1.0000   1.0000   1.0000   1.0000   1.0000   1.0000
     1.0000   1.0000   1.0000   1.0000   1.0000   1.0000   1.0000   1.0000
     1.0000   1.0000   1.0000   1.0000   1.0000   1.0000   1.0000   1.0000
     1.0000   1.0000   1.0000   1.0000   1.0000   1.0000   1.0000   1.0000
     1.0000   1.0000   1.0000   1.0000   1.0000   1.0000   1.0000   1.0000
     1.0000   1.0000   1.0000   1.0000   1.0000   1.0000   1.0000   1.0000
     1.0000   1.0000   1.0000   1.0000   1.0000   1.0000   1.0000   1.0000
     1.0000   1.0000   1.0000   1.0000   1.0000   1.0000   1.0000   1.0000
     1.0000   1.0000   1.0000   1.0000   1.0000   1.0000   1.0000   1.0000
     1.0000   1.0000   1.0000   1.0000   1.0000   1.0000   1.0000   1.0000
     1.0000   1.0000   1.0000   1.0000   1.0000   1.0000   1.0000   1.0000
     1.0000   1.0000   1.0000   1.0000   1.0000   1.0000   1.0000   1.0000
     1.0000   1.0000   1.0000   1.0000   1.0000   1.0000   1.0000   1.0000
     1.0000   1.0000   1.0000   1.0000   1.0000   1.0000   1.0000   1.0000
     1.0000   1.0000   1.0000   1.0000   1.0000   1.0000   1.0000   1.0000
     1.0000   1.0000   1.0000   1.0000   1.0000   1.0000   1.0000   1.0002
     1.0002   1.0002   1.0003   1.0003   1.0003   1.0003   1.0003   1.0003
     1.0024   1.0024   1.0024   1.0509   1.0509   1.0509   0.9995   0.9995
     0.9995   0.9749   0.9749   0.9749   0.2359   0.2359   0.2359   0.0000
     0.0000   0.0000   0.0000   0.0000   0.0000   0.0000   0.0000   0.0000
     0.0000   0.0000   0.0000   0.0000   0.0000   0.0000   0.0000   0.0000
     0.0000   0.0000   0.0000   0.0000   0.0000   0.0000   0.0000   0.0000
     0.0000   0.0000   0.0000   0.0000   0.0000   0.0000   0.0000   0.0000
     0.0000   0.0000   0.0000

          k = 0.0000 0.0000 0.1667 ( 59997 PWs)   bands (ev):

   -18.6027 -18.6025 -18.6025 -18.6025 -18.6023 -18.6023 -18.6022 -18.6021
   -14.0197 -14.0196 -14.0191 -14.0191 -14.0189 -14.0146 -14.0146 -14.0137
   -14.0097 -14.0088 -14.0088 -14.0042 -14.0040 -14.0040 -14.0035 -14.0034
   -13.9687 -13.9686 -13.9686 -13.9686 -13.9686 -13.9686 -13.9684 -13.9684
   -13.9684 -13.9684 -13.9683 -13.9683 -13.9683 -13.9683 -13.9683 -13.9682
   -13.9682 -13.9682 -13.9680 -13.9680 -13.9680 -13.9679 -13.9679 -13.9679
    -9.3442  -9.1767  -9.1458  -9.1458  -8.9564  -8.9564  -8.9064  -8.8442
    -8.8442  -8.8439  -8.8439  -8.8439  -8.8438  -8.8438  -8.8391  -8.8391
    -8.8201  -8.7997  -8.7997  -8.6281  -8.6232  -8.6232  -8.6170  -8.6152
    -5.7020  -5.3903  -5.3903  -5.3899  -5.3789  -5.3789  -5.3782  -5.3782
    -5.3779  -5.3779  -5.3778  -5.3778  -5.3774  -5.3745  -5.3745  -5.3745
    -5.3745  -5.3740  -5.3740  -5.3723  -5.3713  -5.3713  -5.3711  -5.3711
    -5.3708  -5.2426  -5.1725  -5.1725  -4.7360  -4.7360  -4.6681  -4.2285
    -0.6480  -0.6480  -0.5608  -0.5608  -0.5487  -0.5455  -0.5455  -0.4507
    -0.4507  -0.4311  -0.4311  -0.3185   0.6242   0.6317   0.6317   0.7382
     0.7624   0.7624   0.8143   0.8753   0.8753   1.0563   1.0563   1.1078
     1.1078   1.2129   1.2129   1.2596   1.2870   1.2870   1.3187   1.3187
     1.3339   1.3339   1.3606   1.3606   1.3790   1.3790   1.4036   1.4101
     1.4378   1.4391   1.4391   1.4481   1.4481   1.5382   1.5382   1.5492
     1.5492   1.5495   1.5629   1.5629   1.5739   1.5739   1.5839   1.5839
     1.6536   1.6566   1.6566   1.7710   1.8730   1.8730   2.0301   2.0301
     2.0329   2.0329   2.0602   2.0708   2.1986   2.1986   2.3037   2.6017
     4.1790   4.1790   4.4755   4.5488   4.5488   4.5992   4.5992   4.8441
     4.8441   4.8860   4.8860   5.1521   5.9784   6.8142   7.0264   7.0437
     7.1494   7.2498   7.3680   7.3680   7.4067   7.4315   7.4315   7.5181
     7.5181   7.5638   7.5638   7.5948   7.7150   7.7150   7.7499   7.7993
     7.7994   7.8733   7.8733

     occupation numbers 
     1.0000   1.0000   1.0000   1.0000   1.0000   1.0000   1.0000   1.0000
     1.0000   1.0000   1.0000   1.0000   1.0000   1.0000   1.0000   1.0000
     1.0000   1.0000   1.0000   1.0000   1.0000   1.0000   1.0000   1.0000
     1.0000   1.0000   1.0000   1.0000   1.0000   1.0000   1.0000   1.0000
     1.0000   1.0000   1.0000   1.0000   1.0000   1.0000   1.0000   1.0000
     1.0000   1.0000   1.0000   1.0000   1.0000   1.0000   1.0000   1.0000
     1.0000   1.0000   1.0000   1.0000   1.0000   1.0000   1.0000   1.0000
     1.0000   1.0000   1.0000   1.0000   1.0000   1.0000   1.0000   1.0000
     1.0000   1.0000   1.0000   1.0000   1.0000   1.0000   1.0000   1.0000
     1.0000   1.0000   1.0000   1.0000   1.0000   1.0000   1.0000   1.0000
     1.0000   1.0000   1.0000   1.0000   1.0000   1.0000   1.0000   1.0000
     1.0000   1.0000   1.0000   1.0000   1.0000   1.0000   1.0000   1.0000
     1.0000   1.0000   1.0000   1.0000   1.0000   1.0000   1.0000   1.0000
     1.0000   1.0000   1.0000   1.0000   1.0000   1.0000   1.0000   1.0000
     1.0000   1.0000   1.0000   1.0000   1.0000   1.0000   1.0000   1.0000
     1.0000   1.0000   1.0000   1.0000   1.0000   1.0000   1.0000   1.0000
     1.0000   1.0000   1.0000   1.0000   1.0000   1.0000   1.0000   1.0000
     1.0000   1.0000   1.0000   1.0000   1.0000   1.0000   1.0000   1.0000
     1.0000   1.0000   1.0000   1.0000   1.0000   1.0001   1.0001   1.0001
     1.0001   1.0001   1.0002   1.0002   1.0003   1.0003   1.0004   1.0004
     1.0019   1.0020   1.0020   1.0162   1.0549   1.0549   1.0449   1.0449
     1.0415   1.0415   0.9980   0.9767   0.5631   0.5631   0.2210   0.0010
     0.0000   0.0000   0.0000   0.0000   0.0000   0.0000   0.0000   0.0000
     0.0000   0.0000   0.0000   0.0000   0.0000   0.0000   0.0000   0.0000
     0.0000   0.0000   0.0000   0.0000   0.0000   0.0000   0.0000   0.0000
     0.0000   0.0000   0.0000   0.0000   0.0000   0.0000   0.0000   0.0000
     0.0000   0.0000   0.0000

          k = 0.0000 0.0000 0.3333 ( 59944 PWs)   bands (ev):

   -18.6026 -18.6025 -18.6024 -18.6024 -18.6023 -18.6023 -18.6022 -18.6021
   -14.0197 -14.0196 -14.0178 -14.0178 -14.0170 -14.0152 -14.0152 -14.0117
   -14.0116 -14.0081 -14.0081 -14.0062 -14.0054 -14.0054 -14.0035 -14.0034
   -13.9687 -13.9686 -13.9685 -13.9685 -13.9685 -13.9685 -13.9684 -13.9684
   -13.9684 -13.9684 -13.9684 -13.9684 -13.9683 -13.9682 -13.9682 -13.9682
   -13.9682 -13.9682 -13.9680 -13.9680 -13.9680 -13.9680 -13.9680 -13.9679
    -9.3174  -9.2247  -9.1189  -9.1189  -9.0197  -9.0197  -8.8938  -8.8578
    -8.8441  -8.8441  -8.8439  -8.8439  -8.8429  -8.8429  -8.8401  -8.8401
    -8.7667  -8.7389  -8.7389  -8.6599  -8.6473  -8.6473  -8.6166  -8.6156
    -5.6130  -5.3879  -5.3879  -5.3862  -5.3813  -5.3813  -5.3777  -5.3777
    -5.3772  -5.3772  -5.3771  -5.3771  -5.3760  -5.3756  -5.3752  -5.3752
    -5.3752  -5.3752  -5.3734  -5.3734  -5.3733  -5.3733  -5.3717  -5.3717
    -5.3717  -5.3492  -5.0902  -5.0902  -4.8403  -4.8403  -4.5895  -4.3384
    -0.6306  -0.6306  -0.5803  -0.5803  -0.5231  -0.5231  -0.4572  -0.4572
    -0.2600  -0.1650  -0.1650  -0.0300   0.5448   0.6477   0.6777   0.6777
     0.6916   0.6916   0.7135   0.8076   0.8076   0.8195   0.8195   0.8671
     0.9834   0.9834   1.2084   1.2084   1.2295   1.2295   1.3275   1.3275
     1.3516   1.3517   1.3835   1.3835   1.4050   1.4087   1.4195   1.4195
     1.4606   1.4963   1.4963   1.5156   1.5156   1.5198   1.5198   1.5250
     1.5566   1.5566   1.5948   1.5948   1.6094   1.6094   1.6250   1.6347
     1.6347   1.6431   1.6849   1.6849   1.8999   1.8999   1.9274   1.9274
     1.9480   1.9480   2.0474   2.0474   2.0624   2.0685   2.3232   2.4452
     4.2657   4.2657   4.4782   4.4782   4.6662   4.6662   4.8322   4.8322
     5.1653   5.4795   5.4795   5.7638   6.1655   6.6723   6.8004   6.9581
     7.0084   7.0085   7.1287   7.1964   7.3423   7.4632   7.4632   7.4664
     7.4676   7.5497   7.5497   7.5590   7.5591   7.6906   7.6926   7.6927
     7.7900   7.7902   7.8296

     occupation numbers 
     1.0000   1.0000   1.0000   1.0000   1.0000   1.0000   1.0000   1.0000
     1.0000   1.0000   1.0000   1.0000   1.0000   1.0000   1.0000   1.0000
     1.0000   1.0000   1.0000   1.0000   1.0000   1.0000   1.0000   1.0000
     1.0000   1.0000   1.0000   1.0000   1.0000   1.0000   1.0000   1.0000
     1.0000   1.0000   1.0000   1.0000   1.0000   1.0000   1.0000   1.0000
     1.0000   1.0000   1.0000   1.0000   1.0000   1.0000   1.0000   1.0000
     1.0000   1.0000   1.0000   1.0000   1.0000   1.0000   1.0000   1.0000
     1.0000   1.0000   1.0000   1.0000   1.0000   1.0000   1.0000   1.0000
     1.0000   1.0000   1.0000   1.0000   1.0000   1.0000   1.0000   1.0000
     1.0000   1.0000   1.0000   1.0000   1.0000   1.0000   1.0000   1.0000
     1.0000   1.0000   1.0000   1.0000   1.0000   1.0000   1.0000   1.0000
     1.0000   1.0000   1.0000   1.0000   1.0000   1.0000   1.0000   1.0000
     1.0000   1.0000   1.0000   1.0000   1.0000   1.0000   1.0000   1.0000
     1.0000   1.0000   1.0000   1.0000   1.0000   1.0000   1.0000   1.0000
     1.0000   1.0000   1.0000   1.0000   1.0000   1.0000   1.0000   1.0000
     1.0000   1.0000   1.0000   1.0000   1.0000   1.0000   1.0000   1.0000
     1.0000   1.0000   1.0000   1.0000   1.0000   1.0000   1.0000   1.0000
     1.0000   1.0000   1.0000   1.0000   1.0000   1.0000   1.0000   1.0000
     1.0000   1.0000   1.0000   1.0001   1.0001   1.0001   1.0001   1.0001
     1.0002   1.0002   1.0005   1.0005   1.0007   1.0007   1.0010   1.0012
     1.0012   1.0015   1.0036   1.0036   1.0672   1.0672   1.0777   1.0777
     1.0824   1.0824   1.0206   1.0206   0.9937   0.9814   0.1762   0.0286
     0.0000   0.0000   0.0000   0.0000   0.0000   0.0000   0.0000   0.0000
     0.0000   0.0000   0.0000   0.0000   0.0000   0.0000   0.0000   0.0000
     0.0000   0.0000   0.0000   0.0000   0.0000   0.0000   0.0000   0.0000
     0.0000   0.0000   0.0000   0.0000   0.0000   0.0000   0.0000   0.0000
     0.0000   0.0000   0.0000

          k = 0.0000 0.0000-0.5000 ( 60000 PWs)   bands (ev):

   -18.6026 -18.6026 -18.6024 -18.6024 -18.6024 -18.6024 -18.6022 -18.6022
   -14.0196 -14.0196 -14.0163 -14.0163 -14.0163 -14.0163 -14.0143 -14.0143
   -14.0089 -14.0089 -14.0070 -14.0070 -14.0070 -14.0070 -14.0035 -14.0034
   -13.9686 -13.9686 -13.9685 -13.9685 -13.9685 -13.9685 -13.9684 -13.9684
   -13.9684 -13.9684 -13.9684 -13.9684 -13.9683 -13.9683 -13.9682 -13.9682
   -13.9682 -13.9682 -13.9681 -13.9681 -13.9681 -13.9681 -13.9679 -13.9679
    -9.2757  -9.2757  -9.0758  -9.0758  -9.0758  -9.0758  -8.8762  -8.8762
    -8.8440  -8.8440  -8.8440  -8.8440  -8.8415  -8.8415  -8.8415  -8.8415
    -8.7086  -8.7086  -8.6866  -8.6866  -8.6865  -8.6865  -8.6161  -8.6161
    -5.4854  -5.4854  -5.3846  -5.3846  -5.3846  -5.3846  -5.3811  -5.3811
    -5.3762  -5.3762  -5.3762  -5.3762  -5.3761  -5.3761  -5.3761  -5.3761
    -5.3758  -5.3758  -5.3758  -5.3758  -5.3734  -5.3734  -5.3726  -5.3726
    -5.3726  -5.3726  -4.9707  -4.9707  -4.9707  -4.9707  -4.4715  -4.4715
    -0.6060  -0.6060  -0.6060  -0.6060  -0.4911  -0.4911  -0.4911  -0.4911
     0.1403   0.1404   0.2448   0.2448   0.2448   0.2448   0.3925   0.3926
     0.6804   0.6804   0.7456   0.7456   0.7456   0.7456   0.8819   0.8819
     0.8819   0.8819   1.2092   1.2092   1.2093   1.2093   1.3395   1.3395
     1.3395   1.3395   1.4068   1.4069   1.4501   1.4501   1.4501   1.4501
     1.4722   1.4722   1.4722   1.4722   1.4923   1.4923   1.5308   1.5308
     1.5308   1.5308   1.6063   1.6064   1.6122   1.6122   1.6122   1.6122
     1.7785   1.7785   1.7785   1.7785   1.8273   1.8273   1.8273   1.8273
     1.9519   1.9519   1.9519   1.9519   2.0655   2.0655   2.3635   2.3635
     4.3759   4.3759   4.3759   4.3759   4.7525   4.7525   4.7525   4.7525
     5.9408   5.9409   6.2509   6.2509   6.2510   6.2510   6.4514   6.4514
     6.5417   6.5418   7.1841   7.1841   7.2896   7.2896   7.4260   7.4260
     7.6068   7.6068   7.6069   7.6069   7.6193   7.6193   7.6193   7.6194
     7.7223   7.7224   7.7225

     occupation numbers 
     1.0000   1.0000   1.0000   1.0000   1.0000   1.0000   1.0000   1.0000
     1.0000   1.0000   1.0000   1.0000   1.0000   1.0000   1.0000   1.0000
     1.0000   1.0000   1.0000   1.0000   1.0000   1.0000   1.0000   1.0000
     1.0000   1.0000   1.0000   1.0000   1.0000   1.0000   1.0000   1.0000
     1.0000   1.0000   1.0000   1.0000   1.0000   1.0000   1.0000   1.0000
     1.0000   1.0000   1.0000   1.0000   1.0000   1.0000   1.0000   1.0000
     1.0000   1.0000   1.0000   1.0000   1.0000   1.0000   1.0000   1.0000
     1.0000   1.0000   1.0000   1.0000   1.0000   1.0000   1.0000   1.0000
     1.0000   1.0000   1.0000   1.0000   1.0000   1.0000   1.0000   1.0000
     1.0000   1.0000   1.0000   1.0000   1.0000   1.0000   1.0000   1.0000
     1.0000   1.0000   1.0000   1.0000   1.0000   1.0000   1.0000   1.0000
     1.0000   1.0000   1.0000   1.0000   1.0000   1.0000   1.0000   1.0000
     1.0000   1.0000   1.0000   1.0000   1.0000   1.0000   1.0000   1.0000
     1.0000   1.0000   1.0000   1.0000   1.0000   1.0000   1.0000   1.0000
     1.0000   1.0000   1.0000   1.0000   1.0000   1.0000   1.0000   1.0000
     1.0000   1.0000   1.0000   1.0000   1.0000   1.0000   1.0000   1.0000
     1.0000   1.0000   1.0000   1.0000   1.0000   1.0000   1.0000   1.0000
     1.0000   1.0000   1.0000   1.0000   1.0000   1.0000   1.0000   1.0000
     1.0000   1.0000   1.0000   1.0000   1.0000   1.0000   1.0001   1.0001
     1.0001   1.0001   1.0006   1.0006   1.0007   1.0007   1.0007   1.0007
     1.0181   1.0181   1.0181   1.0181   1.0345   1.0345   1.0345   1.0345
     1.0829   1.0829   1.0829   1.0829   0.9877   0.9876   0.1044   0.1043
     0.0000   0.0000   0.0000   0.0000   0.0000   0.0000   0.0000   0.0000
     0.0000   0.0000   0.0000   0.0000   0.0000   0.0000   0.0000   0.0000
     0.0000   0.0000   0.0000   0.0000   0.0000   0.0000   0.0000   0.0000
     0.0000   0.0000   0.0000   0.0000   0.0000   0.0000   0.0000   0.0000
     0.0000   0.0000   0.0000

          k = 0.0000 0.1667 0.1667 ( 59967 PWs)   bands (ev):

   -18.6027 -18.6025 -18.6025 -18.6024 -18.6023 -18.6023 -18.6023 -18.6021
   -14.0193 -14.0192 -14.0191 -14.0186 -14.0186 -14.0148 -14.0138 -14.0138
   -14.0095 -14.0095 -14.0086 -14.0046 -14.0045 -14.0040 -14.0040 -14.0038
   -13.9686 -13.9686 -13.9686 -13.9686 -13.9686 -13.9685 -13.9684 -13.9683
   -13.9683 -13.9683 -13.9683 -13.9683 -13.9683 -13.9683 -13.9683 -13.9682
   -13.9682 -13.9682 -13.9680 -13.9680 -13.9680 -13.9680 -13.9680 -13.9680
    -9.3350  -9.1677  -9.1677  -9.1368  -8.9889  -8.9512  -8.9512  -8.8637
    -8.8439  -8.8439  -8.8438  -8.8394  -8.8299  -8.8245  -8.8201  -8.8201
    -8.8002  -8.8002  -8.7823  -8.6333  -8.6309  -8.6233  -8.6233  -8.6225
    -5.6706  -5.3901  -5.3894  -5.3880  -5.3792  -5.3792  -5.3788  -5.3788
    -5.3780  -5.3779  -5.3777  -5.3776  -5.3765  -5.3753  -5.3748  -5.3748
    -5.3742  -5.3742  -5.3733  -5.3723  -5.3723  -5.3721  -5.3714  -5.3713
    -5.3713  -5.2130  -5.2130  -5.1436  -4.7763  -4.7087  -4.7087  -4.2715
    -0.6416  -0.5668  -0.5530  -0.5530  -0.5184  -0.4620  -0.4584  -0.4584
    -0.4408  -0.4235  -0.3288  -0.3288   0.6397   0.6397   0.6439   0.7402
     0.7673   0.7744   0.8051   0.8051   0.8604   0.9812   1.0234   1.0234
     1.1077   1.1077   1.1590   1.1965   1.2159   1.2906   1.2906   1.3118
     1.3118   1.3290   1.3304   1.3435   1.3757   1.3757   1.4141   1.4395
     1.4395   1.4713   1.5057   1.5121   1.5185   1.5185   1.5350   1.5350
     1.5408   1.5668   1.5668   1.5671   1.5804   1.5829   1.5829   1.6052
     1.6263   1.6461   1.6729   1.7836   1.7836   1.8793   2.0079   2.0093
     2.0143   2.0310   2.0310   2.0509   2.0944   2.2025   2.2025   2.4694
     4.2115   4.4661   4.5355   4.5745   4.5745   4.8209   4.8209   4.8482
     4.8668   4.8847   5.1340   5.1340   6.0406   6.8597   7.0712   7.0801
     7.1741   7.1741   7.2607   7.2607   7.3871   7.4382   7.4696   7.4853
     7.5277   7.5909   7.5980   7.5980   7.6678   7.6679   7.7358   7.7649
     7.7671   7.9352   7.9357

     occupation numbers 
     1.0000   1.0000   1.0000   1.0000   1.0000   1.0000   1.0000   1.0000
     1.0000   1.0000   1.0000   1.0000   1.0000   1.0000   1.0000   1.0000
     1.0000   1.0000   1.0000   1.0000   1.0000   1.0000   1.0000   1.0000
     1.0000   1.0000   1.0000   1.0000   1.0000   1.0000   1.0000   1.0000
     1.0000   1.0000   1.0000   1.0000   1.0000   1.0000   1.0000   1.0000
     1.0000   1.0000   1.0000   1.0000   1.0000   1.0000   1.0000   1.0000
     1.0000   1.0000   1.0000   1.0000   1.0000   1.0000   1.0000   1.0000
     1.0000   1.0000   1.0000   1.0000   1.0000   1.0000   1.0000   1.0000
     1.0000   1.0000   1.0000   1.0000   1.0000   1.0000   1.0000   1.0000
     1.0000   1.0000   1.0000   1.0000   1.0000   1.0000   1.0000   1.0000
     1.0000   1.0000   1.0000   1.0000   1.0000   1.0000   1.0000   1.0000
     1.0000   1.0000   1.0000   1.0000   1.0000   1.0000   1.0000   1.0000
     1.0000   1.0000   1.0000   1.0000   1.0000   1.0000   1.0000   1.0000
     1.0000   1.0000   1.0000   1.0000   1.0000   1.0000   1.0000   1.0000
     1.0000   1.0000   1.0000   1.0000   1.0000   1.0000   1.0000   1.0000
     1.0000   1.0000   1.0000   1.0000   1.0000   1.0000   1.0000   1.0000
     1.0000   1.0000   1.0000   1.0000   1.0000   1.0000   1.0000   1.0000
     1.0000   1.0000   1.0000   1.0000   1.0000   1.0000   1.0000   1.0000
     1.0000   1.0000   1.0000   1.0001   1.0001   1.0001   1.0001   1.0001
     1.0001   1.0002   1.0002   1.0002   1.0003   1.0004   1.0004   1.0006
     1.0010   1.0016   1.0028   1.0195   1.0195   1.0578   1.0668   1.0657
     1.0616   1.0439   1.0439   1.0148   0.9198   0.5484   0.5484   0.0183
     0.0000   0.0000   0.0000   0.0000   0.0000   0.0000   0.0000   0.0000
     0.0000   0.0000   0.0000   0.0000   0.0000   0.0000   0.0000   0.0000
     0.0000   0.0000   0.0000   0.0000   0.0000   0.0000   0.0000   0.0000
     0.0000   0.0000   0.0000   0.0000   0.0000   0.0000   0.0000   0.0000
     0.0000   0.0000   0.0000

          k = 0.0000 0.1667 0.3333 ( 59920 PWs)   bands (ev):

   -18.6026 -18.6025 -18.6024 -18.6024 -18.6023 -18.6023 -18.6022 -18.6021
   -14.0191 -14.0191 -14.0178 -14.0172 -14.0167 -14.0153 -14.0144 -14.0118
   -14.0115 -14.0088 -14.0080 -14.0064 -14.0060 -14.0054 -14.0040 -14.0040
   -13.9686 -13.9686 -13.9685 -13.9685 -13.9685 -13.9685 -13.9684 -13.9684
   -13.9684 -13.9684 -13.9684 -13.9683 -13.9683 -13.9683 -13.9682 -13.9682
   -13.9682 -13.9682 -13.9681 -13.9680 -13.9680 -13.9680 -13.9680 -13.9679
    -9.3083  -9.2158  -9.1412  -9.1103  -9.0457  -9.0132  -8.9366  -8.8891
    -8.8439  -8.8438  -8.8430  -8.8404  -8.8227  -8.8204  -8.8131  -8.8021
    -8.7672  -8.7415  -8.7346  -8.6622  -8.6538  -8.6473  -8.6243  -8.6237
    -5.5826  -5.3881  -5.3868  -5.3843  -5.3829  -5.3814  -5.3787  -5.3783
    -5.3777  -5.3776  -5.3769  -5.3765  -5.3765  -5.3757  -5.3756  -5.3754
    -5.3750  -5.3747  -5.3741  -5.3736  -5.3728  -5.3727  -5.3723  -5.3720
    -5.3717  -5.3178  -5.1303  -5.0621  -4.8804  -4.8130  -4.6302  -4.3804
    -0.6240  -0.5728  -0.5323  -0.5309  -0.4789  -0.4663  -0.4248  -0.3560
    -0.2476  -0.1744  -0.1526  -0.0421   0.5497   0.6400   0.6616   0.6838
     0.6963   0.7066   0.7218   0.7766   0.7881   0.8082   0.8144   0.8698
     0.9516   0.9836   1.1090   1.1388   1.1490   1.2064   1.2961   1.2969
     1.3124   1.3135   1.3422   1.3668   1.3896   1.4161   1.4382   1.4394
     1.4406   1.4432   1.5052   1.5136   1.5199   1.5322   1.5553   1.5624
     1.5747   1.5782   1.5970   1.6023   1.6076   1.6178   1.6217   1.6505
     1.6722   1.6727   1.6740   1.6966   1.8214   1.9022   1.9157   1.9188
     1.9266   1.9494   1.9607   2.0334   2.0411   2.0490   2.2155   2.3129
     4.2964   4.5051   4.5687   4.6426   4.7563   4.8117   4.9258   5.0821
     5.1869   5.4575   5.4990   5.7455   6.2198   6.6866   6.8330   6.9726
     6.9924   7.0046   7.1722   7.2109   7.2947   7.3021   7.3049   7.4436
     7.4490   7.4654   7.5009   7.5012   7.5578   7.5884   7.6008   7.6072
     7.6150   7.6701   7.7305

     occupation numbers 
     1.0000   1.0000   1.0000   1.0000   1.0000   1.0000   1.0000   1.0000
     1.0000   1.0000   1.0000   1.0000   1.0000   1.0000   1.0000   1.0000
     1.0000   1.0000   1.0000   1.0000   1.0000   1.0000   1.0000   1.0000
     1.0000   1.0000   1.0000   1.0000   1.0000   1.0000   1.0000   1.0000
     1.0000   1.0000   1.0000   1.0000   1.0000   1.0000   1.0000   1.0000
     1.0000   1.0000   1.0000   1.0000   1.0000   1.0000   1.0000   1.0000
     1.0000   1.0000   1.0000   1.0000   1.0000   1.0000   1.0000   1.0000
     1.0000   1.0000   1.0000   1.0000   1.0000   1.0000   1.0000   1.0000
     1.0000   1.0000   1.0000   1.0000   1.0000   1.0000   1.0000   1.0000
     1.0000   1.0000   1.0000   1.0000   1.0000   1.0000   1.0000   1.0000
     1.0000   1.0000   1.0000   1.0000   1.0000   1.0000   1.0000   1.0000
     1.0000   1.0000   1.0000   1.0000   1.0000   1.0000   1.0000   1.0000
     1.0000   1.0000   1.0000   1.0000   1.0000   1.0000   1.0000   1.0000
     1.0000   1.0000   1.0000   1.0000   1.0000   1.0000   1.0000   1.0000
     1.0000   1.0000   1.0000   1.0000   1.0000   1.0000   1.0000   1.0000
     1.0000   1.0000   1.0000   1.0000   1.0000   1.0000   1.0000   1.0000
     1.0000   1.0000   1.0000   1.0000   1.0000   1.0000   1.0000   1.0000
     1.0000   1.0000   1.0000   1.0000   1.0000   1.0000   1.0000   1.0000
     1.0000   1.0000   1.0000   1.0001   1.0001   1.0001   1.0002   1.0002
     1.0003   1.0003   1.0005   1.0006   1.0006   1.0008   1.0009   1.0017
     1.0028   1.0028   1.0029   1.0045   1.0321   1.0682   1.0737   1.0748
     1.0775   1.0826   1.0833   1.0408   1.0302   1.0179   0.5002   0.1991
     0.0000   0.0000   0.0000   0.0000   0.0000   0.0000   0.0000   0.0000
     0.0000   0.0000   0.0000   0.0000   0.0000   0.0000   0.0000   0.0000
     0.0000   0.0000   0.0000   0.0000   0.0000   0.0000   0.0000   0.0000
     0.0000   0.0000   0.0000   0.0000   0.0000   0.0000   0.0000   0.0000
     0.0000   0.0000   0.0000

          k = 0.0000 0.1667-0.5000 ( 59952 PWs)   bands (ev):

   -18.6026 -18.6026 -18.6024 -18.6024 -18.6024 -18.6024 -18.6022 -18.6022
   -14.0191 -14.0191 -14.0164 -14.0163 -14.0157 -14.0156 -14.0141 -14.0141
   -14.0091 -14.0091 -14.0076 -14.0076 -14.0069 -14.0069 -14.0040 -14.0040
   -13.9686 -13.9686 -13.9685 -13.9685 -13.9684 -13.9684 -13.9684 -13.9684
   -13.9684 -13.9684 -13.9684 -13.9683 -13.9683 -13.9682 -13.9682 -13.9682
   -13.9681 -13.9681 -13.9681 -13.9681 -13.9681 -13.9681 -13.9680 -13.9679
    -9.2667  -9.2667  -9.0993  -9.0993  -9.0681  -9.0681  -8.9147  -8.9147
    -8.8439  -8.8438  -8.8417  -8.8417  -8.8210  -8.8209  -8.8060  -8.8060
    -8.7099  -8.7098  -8.6913  -8.6913  -8.6856  -8.6856  -8.6241  -8.6241
    -5.4571  -5.4570  -5.3848  -5.3848  -5.3824  -5.3824  -5.3798  -5.3798
    -5.3775  -5.3775  -5.3768  -5.3768  -5.3767  -5.3767  -5.3767  -5.3767
    -5.3759  -5.3759  -5.3747  -5.3747  -5.3730  -5.3730  -5.3728  -5.3728
    -5.3724  -5.3724  -5.0106  -5.0106  -4.9432  -4.9432  -4.5127  -4.5127
    -0.5990  -0.5989  -0.5058  -0.5058  -0.4995  -0.4995  -0.3912  -0.3912
     0.1500   0.1501   0.2298   0.2298   0.2552   0.2553   0.3752   0.3753
     0.6918   0.6918   0.7326   0.7326   0.7478   0.7478   0.8782   0.8782
     0.8821   0.8821   1.1183   1.1183   1.1568   1.1568   1.2927   1.2928
     1.3546   1.3546   1.3678   1.3678   1.3708   1.3708   1.4415   1.4415
     1.4551   1.4551   1.4680   1.4681   1.5334   1.5334   1.5426   1.5426
     1.5964   1.5964   1.5968   1.5968   1.6068   1.6068   1.6605   1.6605
     1.7739   1.7739   1.7892   1.7892   1.7953   1.7953   1.8310   1.8310
     1.8842   1.8842   1.9526   1.9527   2.0368   2.0368   2.2440   2.2440
     4.4045   4.4045   4.6647   4.6648   4.7303   4.7304   5.0063   5.0063
     5.9580   5.9581   6.2258   6.2260   6.2661   6.2662   6.4870   6.4870
     6.5286   6.5287   7.2014   7.2014   7.3244   7.3244   7.3549   7.3549
     7.4250   7.4252   7.4315   7.4315   7.5542   7.5542   7.5947   7.5947
     7.6106   7.6106   7.6675

     occupation numbers 
     1.0000   1.0000   1.0000   1.0000   1.0000   1.0000   1.0000   1.0000
     1.0000   1.0000   1.0000   1.0000   1.0000   1.0000   1.0000   1.0000
     1.0000   1.0000   1.0000   1.0000   1.0000   1.0000   1.0000   1.0000
     1.0000   1.0000   1.0000   1.0000   1.0000   1.0000   1.0000   1.0000
     1.0000   1.0000   1.0000   1.0000   1.0000   1.0000   1.0000   1.0000
     1.0000   1.0000   1.0000   1.0000   1.0000   1.0000   1.0000   1.0000
     1.0000   1.0000   1.0000   1.0000   1.0000   1.0000   1.0000   1.0000
     1.0000   1.0000   1.0000   1.0000   1.0000   1.0000   1.0000   1.0000
     1.0000   1.0000   1.0000   1.0000   1.0000   1.0000   1.0000   1.0000
     1.0000   1.0000   1.0000   1.0000   1.0000   1.0000   1.0000   1.0000
     1.0000   1.0000   1.0000   1.0000   1.0000   1.0000   1.0000   1.0000
     1.0000   1.0000   1.0000   1.0000   1.0000   1.0000   1.0000   1.0000
     1.0000   1.0000   1.0000   1.0000   1.0000   1.0000   1.0000   1.0000
     1.0000   1.0000   1.0000   1.0000   1.0000   1.0000   1.0000   1.0000
     1.0000   1.0000   1.0000   1.0000   1.0000   1.0000   1.0000   1.0000
     1.0000   1.0000   1.0000   1.0000   1.0000   1.0000   1.0000   1.0000
     1.0000   1.0000   1.0000   1.0000   1.0000   1.0000   1.0000   1.0000
     1.0000   1.0000   1.0000   1.0000   1.0000   1.0000   1.0000   1.0000
     1.0000   1.0000   1.0000   1.0000   1.0001   1.0001   1.0001   1.0001
     1.0005   1.0005   1.0005   1.0005   1.0006   1.0006   1.0022   1.0022
     1.0169   1.0169   1.0211   1.0211   1.0230   1.0230   1.0360   1.0360
     1.0601   1.0601   1.0830   1.0830   1.0362   1.0362   0.3985   0.3984
     0.0000   0.0000   0.0000   0.0000   0.0000   0.0000   0.0000   0.0000
     0.0000   0.0000   0.0000   0.0000   0.0000   0.0000   0.0000   0.0000
     0.0000   0.0000   0.0000   0.0000   0.0000   0.0000   0.0000   0.0000
     0.0000   0.0000   0.0000   0.0000   0.0000   0.0000   0.0000   0.0000
     0.0000   0.0000   0.0000

          k = 0.0000 0.3333 0.3333 ( 59892 PWs)   bands (ev):

   -18.6026 -18.6025 -18.6025 -18.6024 -18.6024 -18.6023 -18.6023 -18.6022
   -14.0183 -14.0179 -14.0178 -14.0157 -14.0157 -14.0156 -14.0125 -14.0125
   -14.0108 -14.0108 -14.0076 -14.0076 -14.0075 -14.0053 -14.0053 -14.0048
   -13.9685 -13.9685 -13.9685 -13.9685 -13.9685 -13.9684 -13.9684 -13.9684
   -13.9684 -13.9684 -13.9683 -13.9683 -13.9683 -13.9683 -13.9682 -13.9682
   -13.9682 -13.9682 -13.9681 -13.9681 -13.9680 -13.9680 -13.9680 -13.9680
    -9.2819  -9.1897  -9.1897  -9.0973  -9.0853  -8.9943  -8.9943  -8.9286
    -8.8436  -8.8431  -8.8431  -8.8411  -8.7900  -8.7851  -8.7690  -8.7690
    -8.7497  -8.7497  -8.7163  -8.6765  -8.6734  -8.6470  -8.6470  -8.6393
    -5.4978  -5.3869  -5.3830  -5.3821  -5.3821  -5.3811  -5.3811  -5.3809
    -5.3784  -5.3778  -5.3777  -5.3766  -5.3766  -5.3764  -5.3762  -5.3750
    -5.3743  -5.3743  -5.3741  -5.3741  -5.3734  -5.3726  -5.3723  -5.3722
    -5.3722  -5.2343  -5.2343  -4.9840  -4.9822  -4.7348  -4.7348  -4.4873
    -0.6055  -0.5519  -0.5518  -0.4905  -0.3143  -0.1997  -0.1997  -0.1964
    -0.1614  -0.0739  -0.0739  -0.0729   0.5393   0.5640   0.5640   0.6324
     0.7000   0.7000   0.7101   0.7101   0.7190   0.7312   0.7685   0.7939
     0.8269   0.9872   0.9872   1.0425   1.0568   1.1256   1.1885   1.1885
     1.2164   1.2164   1.3367   1.3503   1.3721   1.4066   1.4066   1.4160
     1.4933   1.5234   1.5329   1.5329   1.5373   1.5536   1.5536   1.5717
     1.5839   1.5896   1.6011   1.6011   1.6210   1.6211   1.6761   1.6927
     1.6927   1.7131   1.7463   1.7545   1.7545   1.7717   1.8718   1.8979
     1.9045   1.9151   1.9539   1.9539   1.9887   2.0550   2.0550   2.1414
     4.3768   4.5761   4.5761   4.7531   5.1942   5.2848   5.3977   5.3977
     5.5178   5.5813   5.6937   5.6937   6.3761   6.7299   6.7299   6.8702
     6.8949   6.8949   6.9131   7.0927   7.1291   7.1291   7.1741   7.2291
     7.3055   7.3412   7.3539   7.4305   7.4535   7.4536   7.5609   7.5816
     7.5994   7.5994   7.6655

     occupation numbers 
     1.0000   1.0000   1.0000   1.0000   1.0000   1.0000   1.0000   1.0000
     1.0000   1.0000   1.0000   1.0000   1.0000   1.0000   1.0000   1.0000
     1.0000   1.0000   1.0000   1.0000   1.0000   1.0000   1.0000   1.0000
     1.0000   1.0000   1.0000   1.0000   1.0000   1.0000   1.0000   1.0000
     1.0000   1.0000   1.0000   1.0000   1.0000   1.0000   1.0000   1.0000
     1.0000   1.0000   1.0000   1.0000   1.0000   1.0000   1.0000   1.0000
     1.0000   1.0000   1.0000   1.0000   1.0000   1.0000   1.0000   1.0000
     1.0000   1.0000   1.0000   1.0000   1.0000   1.0000   1.0000   1.0000
     1.0000   1.0000   1.0000   1.0000   1.0000   1.0000   1.0000   1.0000
     1.0000   1.0000   1.0000   1.0000   1.0000   1.0000   1.0000   1.0000
     1.0000   1.0000   1.0000   1.0000   1.0000   1.0000   1.0000   1.0000
     1.0000   1.0000   1.0000   1.0000   1.0000   1.0000   1.0000   1.0000
     1.0000   1.0000   1.0000   1.0000   1.0000   1.0000   1.0000   1.0000
     1.0000   1.0000   1.0000   1.0000   1.0000   1.0000   1.0000   1.0000
     1.0000   1.0000   1.0000   1.0000   1.0000   1.0000   1.0000   1.0000
     1.0000   1.0000   1.0000   1.0000   1.0000   1.0000   1.0000   1.0000
     1.0000   1.0000   1.0000   1.0000   1.0000   1.0000   1.0000   1.0000
     1.0000   1.0000   1.0000   1.0000   1.0000   1.0000   1.0000   1.0000
     1.0000   1.0001   1.0001   1.0001   1.0001   1.0002   1.0002   1.0003
     1.0004   1.0004   1.0006   1.0006   1.0009   1.0009   1.0030   1.0042
     1.0042   1.0061   1.0109   1.0125   1.0125   1.0163   1.0543   1.0663
     1.0692   1.0735   1.0831   1.0831   1.0779   1.0077   1.0077   0.7740
     0.0000   0.0000   0.0000   0.0000   0.0000   0.0000   0.0000   0.0000
     0.0000   0.0000   0.0000   0.0000   0.0000   0.0000   0.0000   0.0000
     0.0000   0.0000   0.0000   0.0000   0.0000   0.0000   0.0000   0.0000
     0.0000   0.0000   0.0000   0.0000   0.0000   0.0000   0.0000   0.0000
     0.0000   0.0000   0.0000

          k = 0.0000 0.3333-0.5000 ( 59928 PWs)   bands (ev):

   -18.6025 -18.6025 -18.6024 -18.6024 -18.6023 -18.6023 -18.6022 -18.6022
   -14.0180 -14.0180 -14.0166 -14.0165 -14.0138 -14.0138 -14.0134 -14.0133
   -14.0099 -14.0099 -14.0094 -14.0094 -14.0067 -14.0067 -14.0052 -14.0052
   -13.9685 -13.9685 -13.9685 -13.9684 -13.9684 -13.9684 -13.9684 -13.9684
   -13.9684 -13.9684 -13.9684 -13.9684 -13.9683 -13.9682 -13.9682 -13.9682
   -13.9682 -13.9682 -13.9682 -13.9681 -13.9681 -13.9681 -13.9680 -13.9680
    -9.2405  -9.2405  -9.1487  -9.1487  -9.0456  -9.0456  -8.9650  -8.9650
    -8.8434  -8.8434  -8.8421  -8.8421  -8.7742  -8.7742  -8.7640  -8.7640
    -8.7155  -8.7155  -8.7058  -8.7058  -8.6817  -8.6816  -8.6456  -8.6456
    -5.3966  -5.3966  -5.3844  -5.3844  -5.3801  -5.3801  -5.3795  -5.3795
    -5.3774  -5.3774  -5.3774  -5.3774  -5.3771  -5.3771  -5.3753  -5.3753
    -5.3735  -5.3735  -5.3734  -5.3734  -5.3729  -5.3729  -5.3724  -5.3724
    -5.3567  -5.3567  -5.1143  -5.1143  -4.8645  -4.8645  -4.6180  -4.6180
    -0.5793  -0.5793  -0.5220  -0.5220  -0.2362  -0.2362  -0.1169  -0.1169
     0.1833   0.1834   0.1869   0.1869   0.2890   0.2891   0.3288   0.3288
     0.5883   0.5883   0.7200   0.7200   0.7323   0.7323   0.7512   0.7512
     0.8891   0.8891   1.0051   1.0051   1.0835   1.0835   1.1391   1.1391
     1.2418   1.2418   1.2651   1.2651   1.3924   1.3924   1.4553   1.4553
     1.4718   1.4718   1.5420   1.5420   1.5561   1.5561   1.5596   1.5596
     1.5843   1.5844   1.5897   1.5897   1.6749   1.6749   1.7033   1.7033
     1.7369   1.7369   1.7550   1.7550   1.8094   1.8094   1.8387   1.8388
     1.8455   1.8455   1.9577   1.9577   1.9634   1.9634   2.0731   2.0732
     4.4798   4.4799   4.6677   4.6677   5.3161   5.3161   5.6205   5.6205
     6.0075   6.0076   6.1608   6.1609   6.3100   6.3101   6.4496   6.4497
     6.6332   6.6332   6.8011   6.8012   7.1384   7.1384   7.1417   7.1417
     7.2508   7.2509   7.4347   7.4347   7.4422   7.4422   7.5136   7.5136
     7.6196   7.6201   7.6202

     occupation numbers 
     1.0000   1.0000   1.0000   1.0000   1.0000   1.0000   1.0000   1.0000
     1.0000   1.0000   1.0000   1.0000   1.0000   1.0000   1.0000   1.0000
     1.0000   1.0000   1.0000   1.0000   1.0000   1.0000   1.0000   1.0000
     1.0000   1.0000   1.0000   1.0000   1.0000   1.0000   1.0000   1.0000
     1.0000   1.0000   1.0000   1.0000   1.0000   1.0000   1.0000   1.0000
     1.0000   1.0000   1.0000   1.0000   1.0000   1.0000   1.0000   1.0000
     1.0000   1.0000   1.0000   1.0000   1.0000   1.0000   1.0000   1.0000
     1.0000   1.0000   1.0000   1.0000   1.0000   1.0000   1.0000   1.0000
     1.0000   1.0000   1.0000   1.0000   1.0000   1.0000   1.0000   1.0000
     1.0000   1.0000   1.0000   1.0000   1.0000   1.0000   1.0000   1.0000
     1.0000   1.0000   1.0000   1.0000   1.0000   1.0000   1.0000   1.0000
     1.0000   1.0000   1.0000   1.0000   1.0000   1.0000   1.0000   1.0000
     1.0000   1.0000   1.0000   1.0000   1.0000   1.0000   1.0000   1.0000
     1.0000   1.0000   1.0000   1.0000   1.0000   1.0000   1.0000   1.0000
     1.0000   1.0000   1.0000   1.0000   1.0000   1.0000   1.0000   1.0000
     1.0000   1.0000   1.0000   1.0000   1.0000   1.0000   1.0000   1.0000
     1.0000   1.0000   1.0000   1.0000   1.0000   1.0000   1.0000   1.0000
     1.0000   1.0000   1.0000   1.0000   1.0000   1.0000   1.0000   1.0000
     1.0000   1.0000   1.0001   1.0001   1.0002   1.0002   1.0002   1.0002
     1.0004   1.0004   1.0004   1.0004   1.0029   1.0029   1.0051   1.0051
     1.0093   1.0093   1.0126   1.0126   1.0277   1.0277   1.0392   1.0392
     1.0422   1.0422   1.0833   1.0833   1.0833   1.0833   0.9715   0.9714
     0.0000   0.0000   0.0000   0.0000   0.0000   0.0000   0.0000   0.0000
     0.0000   0.0000   0.0000   0.0000   0.0000   0.0000   0.0000   0.0000
     0.0000   0.0000   0.0000   0.0000   0.0000   0.0000   0.0000   0.0000
     0.0000   0.0000   0.0000   0.0000   0.0000   0.0000   0.0000   0.0000
     0.0000   0.0000   0.0000

          k = 0.0000-0.5000-0.5000 ( 59916 PWs)   bands (ev):

   -18.6025 -18.6025 -18.6025 -18.6025 -18.6023 -18.6023 -18.6023 -18.6023
   -14.0171 -14.0170 -14.0170 -14.0170 -14.0117 -14.0117 -14.0117 -14.0116
   -14.0116 -14.0115 -14.0115 -14.0115 -14.0062 -14.0062 -14.0062 -14.0062
   -13.9685 -13.9685 -13.9684 -13.9684 -13.9684 -13.9684 -13.9684 -13.9684
   -13.9683 -13.9683 -13.9683 -13.9683 -13.9683 -13.9682 -13.9682 -13.9682
   -13.9682 -13.9682 -13.9681 -13.9681 -13.9681 -13.9681 -13.9681 -13.9681
    -9.1995  -9.1995  -9.1995  -9.1995  -9.0102  -9.0102  -9.0102  -9.0102
    -8.8428  -8.8428  -8.8428  -8.8427  -8.7341  -8.7341  -8.7341  -8.7341
    -8.7301  -8.7301  -8.7301  -8.7301  -8.6695  -8.6694  -8.6694  -8.6694
    -5.3839  -5.3839  -5.3839  -5.3839  -5.3827  -5.3827  -5.3827  -5.3827
    -5.3776  -5.3776  -5.3776  -5.3776  -5.3746  -5.3746  -5.3746  -5.3746
    -5.3744  -5.3744  -5.3744  -5.3744  -5.3725  -5.3725  -5.3725  -5.3725
    -5.2446  -5.2446  -5.2446  -5.2445  -4.7477  -4.7477  -4.7477  -4.7477
    -0.5513  -0.5513  -0.5513  -0.5513   0.0733   0.0733   0.0733   0.0733
     0.2154   0.2154   0.2154   0.2155   0.2961   0.2962   0.2962   0.2962
     0.3984   0.3984   0.3984   0.3984   0.7451   0.7451   0.7451   0.7451
     0.9246   0.9246   0.9246   0.9246   1.1317   1.1317   1.1317   1.1317
     1.1726   1.1727   1.1727   1.1727   1.4313   1.4313   1.4313   1.4313
     1.5067   1.5067   1.5067   1.5067   1.5548   1.5548   1.5548   1.5548
     1.6095   1.6095   1.6095   1.6095   1.6991   1.6991   1.6991   1.6991
     1.7801   1.7802   1.7802   1.7802   1.7977   1.7977   1.7977   1.7977
     1.8858   1.8858   1.8858   1.8858   1.9835   1.9835   1.9835   1.9836
     4.5769   4.5769   4.5769   4.5769   6.0605   6.0606   6.0606   6.0606
     6.0979   6.0980   6.0980   6.0980   6.3620   6.3620   6.3620   6.3621
     6.3877   6.3877   6.3877   6.3878   6.8770   6.8770   6.8770   6.8771
     7.3289   7.3289   7.3289   7.3291   7.5764   7.5765   7.5765   7.6261
     7.6262   7.6263   7.6263

     occupation numbers 
     1.0000   1.0000   1.0000   1.0000   1.0000   1.0000   1.0000   1.0000
     1.0000   1.0000   1.0000   1.0000   1.0000   1.0000   1.0000   1.0000
     1.0000   1.0000   1.0000   1.0000   1.0000   1.0000   1.0000   1.0000
     1.0000   1.0000   1.0000   1.0000   1.0000   1.0000   1.0000   1.0000
     1.0000   1.0000   1.0000   1.0000   1.0000   1.0000   1.0000   1.0000
     1.0000   1.0000   1.0000   1.0000   1.0000   1.0000   1.0000   1.0000
[...]
     atom   24 type  2   force =    -0.00000000   -0.00000000    0.00021115
     atom   25 type  2   force =    -0.00000000   -0.00020855   -0.00000000
     atom   26 type  2   force =    -0.00000000   -0.00021075    0.00000000
     atom   27 type  2   force =    -0.00000000    0.00020855   -0.00000000
     atom   28 type  2   force =    -0.00000000    0.00021075    0.00000000
     atom   29 type  2   force =     0.00000000   -0.00021075   -0.00000000
     atom   30 type  2   force =     0.00000000   -0.00021115    0.00000000
     atom   31 type  2   force =     0.00000000    0.00021075   -0.00000000
     atom   32 type  2   force =    -0.00000000    0.00021115   -0.00000000
     atom   33 type  2   force =    -0.00020855   -0.00000000   -0.00000000
     atom   34 type  2   force =    -0.00021075   -0.00000000    0.00000000
     atom   35 type  2   force =    -0.00021075    0.00000000   -0.00000000
     atom   36 type  2   force =    -0.00021115    0.00000000    0.00000000
     atom   37 type  2   force =     0.00020855   -0.00000000   -0.00000000
     atom   38 type  2   force =     0.00021075   -0.00000000    0.00000000
     atom   39 type  2   force =     0.00021075    0.00000000   -0.00000000
     atom   40 type  2   force =     0.00021115   -0.00000000   -0.00000000
     The local contribution  to forces
     atom    1 type  1   force =     0.00004710    0.00004710    0.00004710
     atom    2 type  1   force =     0.00004710    0.00004710   -0.00004710
     atom    3 type  1   force =     0.00004710   -0.00004710    0.00004710
     atom    4 type  1   force =     0.00004710   -0.00004710   -0.00004710
     atom    5 type  1   force =    -0.00004710    0.00004710    0.00004710
     atom    6 type  1   force =    -0.00004710    0.00004710   -0.00004710
     atom    7 type  1   force =    -0.00004710   -0.00004710    0.00004710
     atom    8 type  1   force =    -0.00004710   -0.00004710   -0.00004710
     atom    9 type  3   force =     0.00000000    0.00000000   -0.00000000
     atom   10 type  3   force =     0.00000000    0.00000000    0.00000000
     atom   11 type  3   force =     0.00000000    0.00000000    0.00000000
     atom   12 type  3   force =     0.00000000    0.00000000    0.00000000
     atom   13 type  3   force =     0.00000000    0.00000000   -0.00000000
     atom   14 type  3   force =     0.00000000    0.00000000    0.00000000
     atom   15 type  3   force =     0.00000000    0.00000000    0.00000000
     atom   16 type  3   force =     0.00000000    0.00000000    0.00000000
     atom   17 type  2   force =     0.00000000    0.00000000    0.00020702
     atom   18 type  2   force =     0.00000000   -0.00000000   -0.00020702
     atom   19 type  2   force =    -0.00000000   -0.00000000    0.00019819
     atom   20 type  2   force =     0.00000000    0.00000000   -0.00019819
     atom   21 type  2   force =    -0.00000000    0.00000000    0.00019819
     atom   22 type  2   force =     0.00000000    0.00000000   -0.00019819
     atom   23 type  2   force =     0.00000000    0.00000000    0.00020237
     atom   24 type  2   force =    -0.00000000   -0.00000000   -0.00020237
     atom   25 type  2   force =     0.00000000    0.00020702    0.00000000
     atom   26 type  2   force =     0.00000000    0.00019819   -0.00000000
     atom   27 type  2   force =     0.00000000   -0.00020702    0.00000000
     atom   28 type  2   force =    -0.00000000   -0.00019819    0.00000000
     atom   29 type  2   force =    -0.00000000    0.00019819    0.00000000
     atom   30 type  2   force =     0.00000000    0.00020237    0.00000000
     atom   31 type  2   force =     0.00000000   -0.00019819    0.00000000
     atom   32 type  2   force =     0.00000000   -0.00020237   -0.00000000
     atom   33 type  2   force =     0.00020702    0.00000000   -0.00000000
     atom   34 type  2   force =     0.00019819   -0.00000000   -0.00000000
     atom   35 type  2   force =     0.00019819    0.00000000   -0.00000000
     atom   36 type  2   force =     0.00020237    0.00000000    0.00000000
     atom   37 type  2   force =    -0.00020702    0.00000000   -0.00000000
     atom   38 type  2   force =    -0.00019819   -0.00000000    0.00000000
     atom   39 type  2   force =    -0.00019819    0.00000000   -0.00000000
     atom   40 type  2   force =    -0.00020237   -0.00000000   -0.00000000
     The core correction contribution to forces
     atom    1 type  1   force =    -0.00000001   -0.00000001   -0.00000001
     atom    2 type  1   force =    -0.00000001   -0.00000001    0.00000001
     atom    3 type  1   force =    -0.00000001    0.00000001   -0.00000001
     atom    4 type  1   force =    -0.00000001    0.00000001    0.00000001
     atom    5 type  1   force =     0.00000001   -0.00000001   -0.00000001
     atom    6 type  1   force =     0.00000001   -0.00000001    0.00000001
     atom    7 type  1   force =     0.00000001    0.00000001   -0.00000001
     atom    8 type  1   force =     0.00000001    0.00000001    0.00000001
     atom    9 type  3   force =     0.00000000    0.00000000    0.00000000
     atom   10 type  3   force =    -0.00000000   -0.00000000    0.00000000
     atom   11 type  3   force =    -0.00000000    0.00000000   -0.00000000
     atom   12 type  3   force =     0.00000000   -0.00000000   -0.00000000
     atom   13 type  3   force =     0.00000000   -0.00000000   -0.00000000
     atom   14 type  3   force =    -0.00000000    0.00000000   -0.00000000
     atom   15 type  3   force =    -0.00000000   -0.00000000    0.00000000
     atom   16 type  3   force =     0.00000000    0.00000000    0.00000000
     atom   17 type  2   force =     0.00000000    0.00000000    0.00000058
     atom   18 type  2   force =     0.00000000    0.00000000   -0.00000058
     atom   19 type  2   force =     0.00000000   -0.00000000    0.00000033
     atom   20 type  2   force =     0.00000000   -0.00000000   -0.00000033
     atom   21 type  2   force =    -0.00000000    0.00000000    0.00000033
     atom   22 type  2   force =    -0.00000000    0.00000000   -0.00000033
     atom   23 type  2   force =    -0.00000000   -0.00000000    0.00000032
     atom   24 type  2   force =     0.00000000    0.00000000   -0.00000032
     atom   25 type  2   force =     0.00000000    0.00000058    0.00000000
     atom   26 type  2   force =     0.00000000    0.00000033   -0.00000000
     atom   27 type  2   force =     0.00000000   -0.00000058    0.00000000
     atom   28 type  2   force =     0.00000000   -0.00000033   -0.00000000
     atom   29 type  2   force =    -0.00000000    0.00000033    0.00000000
     atom   30 type  2   force =    -0.00000000    0.00000032   -0.00000000
     atom   31 type  2   force =    -0.00000000   -0.00000033    0.00000000
     atom   32 type  2   force =     0.00000000   -0.00000032    0.00000000
     atom   33 type  2   force =     0.00000058    0.00000000    0.00000000
     atom   34 type  2   force =     0.00000033    0.00000000   -0.00000000
     atom   35 type  2   force =     0.00000033   -0.00000000    0.00000000
     atom   36 type  2   force =     0.00000032   -0.00000000   -0.00000000
     atom   37 type  2   force =    -0.00000058    0.00000000    0.00000000
     atom   38 type  2   force =    -0.00000033    0.00000000   -0.00000000
     atom   39 type  2   force =    -0.00000033   -0.00000000    0.00000000
     atom   40 type  2   force =    -0.00000032    0.00000000    0.00000000
     The Hubbard contrib.    to forces
     atom    1 type  1   force =     0.00000000    0.00000000    0.00000000
     atom    2 type  1   force =     0.00000000    0.00000000    0.00000000
     atom    3 type  1   force =     0.00000000    0.00000000    0.00000000
     atom    4 type  1   force =     0.00000000    0.00000000    0.00000000
     atom    5 type  1   force =     0.00000000    0.00000000    0.00000000
     atom    6 type  1   force =     0.00000000    0.00000000    0.00000000
     atom    7 type  1   force =     0.00000000    0.00000000    0.00000000
     atom    8 type  1   force =     0.00000000    0.00000000    0.00000000
     atom    9 type  3   force =     0.00000000    0.00000000    0.00000000
     atom   10 type  3   force =     0.00000000    0.00000000    0.00000000
     atom   11 type  3   force =     0.00000000    0.00000000    0.00000000
     atom   12 type  3   force =     0.00000000    0.00000000    0.00000000
     atom   13 type  3   force =     0.00000000    0.00000000    0.00000000
     atom   14 type  3   force =     0.00000000    0.00000000    0.00000000
     atom   15 type  3   force =     0.00000000    0.00000000    0.00000000
     atom   16 type  3   force =     0.00000000    0.00000000    0.00000000
     atom   17 type  2   force =     0.00000000    0.00000000    0.00000000
     atom   18 type  2   force =     0.00000000    0.00000000    0.00000000
     atom   19 type  2   force =     0.00000000    0.00000000    0.00000000
     atom   20 type  2   force =     0.00000000    0.00000000    0.00000000
     atom   21 type  2   force =     0.00000000    0.00000000    0.00000000
     atom   22 type  2   force =     0.00000000    0.00000000    0.00000000
     atom   23 type  2   force =     0.00000000    0.00000000    0.00000000
     atom   24 type  2   force =     0.00000000    0.00000000    0.00000000
     atom   25 type  2   force =     0.00000000    0.00000000    0.00000000
     atom   26 type  2   force =     0.00000000    0.00000000    0.00000000
     atom   27 type  2   force =     0.00000000    0.00000000    0.00000000
     atom   28 type  2   force =     0.00000000    0.00000000    0.00000000
     atom   29 type  2   force =     0.00000000    0.00000000    0.00000000
     atom   30 type  2   force =     0.00000000    0.00000000    0.00000000
     atom   31 type  2   force =     0.00000000    0.00000000    0.00000000
     atom   32 type  2   force =     0.00000000    0.00000000    0.00000000
     atom   33 type  2   force =     0.00000000    0.00000000    0.00000000
     atom   34 type  2   force =     0.00000000    0.00000000    0.00000000
     atom   35 type  2   force =     0.00000000    0.00000000    0.00000000
     atom   36 type  2   force =     0.00000000    0.00000000    0.00000000
     atom   37 type  2   force =     0.00000000    0.00000000    0.00000000
     atom   38 type  2   force =     0.00000000    0.00000000    0.00000000
     atom   39 type  2   force =     0.00000000    0.00000000    0.00000000
     atom   40 type  2   force =     0.00000000    0.00000000    0.00000000
     The SCF correction term to forces
     atom    1 type  1   force =     0.00000224    0.00000224    0.00000224
     atom    2 type  1   force =     0.00000224    0.00000224   -0.00000224
     atom    3 type  1   force =     0.00000224   -0.00000224    0.00000224
     atom    4 type  1   force =     0.00000224   -0.00000224   -0.00000224
     atom    5 type  1   force =    -0.00000224    0.00000224    0.00000224
     atom    6 type  1   force =    -0.00000224    0.00000224   -0.00000224
     atom    7 type  1   force =    -0.00000224   -0.00000224    0.00000224
     atom    8 type  1   force =    -0.00000224   -0.00000224   -0.00000224
     atom    9 type  3   force =     0.00000000    0.00000000    0.00000000
     atom   10 type  3   force =     0.00000000    0.00000000   -0.00000000
     atom   11 type  3   force =    -0.00000000   -0.00000000    0.00000000
     atom   12 type  3   force =    -0.00000000   -0.00000000    0.00000000
     atom   13 type  3   force =     0.00000000   -0.00000000    0.00000000
     atom   14 type  3   force =    -0.00000000    0.00000000   -0.00000000
     atom   15 type  3   force =    -0.00000000   -0.00000000    0.00000000
     atom   16 type  3   force =     0.00000000   -0.00000000    0.00000000
     atom   17 type  2   force =     0.00000000   -0.00000000   -0.00000469
     atom   18 type  2   force =     0.00000000   -0.00000000    0.00000469
     atom   19 type  2   force =    -0.00000000   -0.00000000    0.00000678
     atom   20 type  2   force =    -0.00000000   -0.00000000   -0.00000678
     atom   21 type  2   force =     0.00000000   -0.00000000    0.00000678
     atom   22 type  2   force =     0.00000000    0.00000000   -0.00000678
     atom   23 type  2   force =    -0.00000000   -0.00000000    0.00000288
     atom   24 type  2   force =    -0.00000000   -0.00000000   -0.00000288
     atom   25 type  2   force =    -0.00000000   -0.00000469    0.00000000
     atom   26 type  2   force =    -0.00000000    0.00000678   -0.00000000
     atom   27 type  2   force =     0.00000000    0.00000469    0.00000000
     atom   28 type  2   force =     0.00000000   -0.00000678   -0.00000000
     atom   29 type  2   force =     0.00000000    0.00000678    0.00000000
     atom   30 type  2   force =    -0.00000000    0.00000288   -0.00000000
     atom   31 type  2   force =     0.00000000   -0.00000678    0.00000000
     atom   32 type  2   force =    -0.00000000   -0.00000288   -0.00000000
     atom   33 type  2   force =    -0.00000469    0.00000000    0.00000000
     atom   34 type  2   force =     0.00000678   -0.00000000    0.00000000
     atom   35 type  2   force =     0.00000678   -0.00000000    0.00000000
     atom   36 type  2   force =     0.00000288   -0.00000000   -0.00000000
     atom   37 type  2   force =     0.00000469    0.00000000    0.00000000
     atom   38 type  2   force =    -0.00000678   -0.00000000    0.00000000
     atom   39 type  2   force =    -0.00000678   -0.00000000    0.00000000
     atom   40 type  2   force =    -0.00000288   -0.00000000   -0.00000000

     Total force =     0.000022     Total SCF correction =     0.000029
     SCF correction compared to forces is large: reduce conv_thr to get better values


     Computing stress (Cartesian axis) and pressure

          total   stress  (Ry/bohr**3)                   (kbar)     P=       -1.95
  -0.00001328   0.00000000   0.00000000           -1.95        0.00        0.00
   0.00000000  -0.00001328   0.00000000            0.00       -1.95        0.00
   0.00000000   0.00000000  -0.00001328            0.00        0.00       -1.95

     kinetic stress (kbar)   3450.67      0.00      0.00
                                0.00   3450.67      0.00
                                0.00      0.00   3450.67

     local   stress (kbar)   -368.81      0.00      0.00
                                0.00   -368.81     -0.00
                                0.00     -0.00   -368.81

     nonloc. stress (kbar)    893.01      0.00      0.00
                                0.00    893.01      0.00
                                0.00      0.00    893.01

     hartree stress (kbar)   1917.81     -0.00     -0.00
                               -0.00   1917.81      0.00
                               -0.00      0.00   1917.81

     exc-cor stress (kbar)  12007.57      0.00     -0.00
                                0.00  12007.57      0.00
                               -0.00      0.00  12007.57

     corecor stress (kbar) -13606.18      0.00     -0.00
                                0.00 -13606.18      0.00
                               -0.00      0.00 -13606.18

     ewald   stress (kbar)  -4296.03     -0.00     -0.00
                               -0.00  -4296.03     -0.00
                               -0.00     -0.00  -4296.03

     hubbard stress (kbar)      0.00      0.00      0.00
                                0.00      0.00      0.00
                                0.00      0.00      0.00

     DFT-D   stress (kbar)      0.00      0.00      0.00
                                0.00      0.00      0.00
                                0.00      0.00      0.00

     XDM     stress (kbar)      0.00      0.00      0.00
                                0.00      0.00      0.00
                                0.00      0.00      0.00

     dft-nl  stress (kbar)      0.00      0.00      0.00
                                0.00      0.00      0.00
                                0.00      0.00      0.00

     TS-vdW  stress (kbar)      0.00      0.00      0.00
                                0.00      0.00      0.00
                                0.00      0.00      0.00



     Writing output data file ../../out/aiida.save/

     init_run     :   1061.56s CPU   1069.42s WALL (       1 calls)
     electrons    :  49988.22s CPU  50193.31s WALL (       1 calls)
     forces       :    614.84s CPU    615.41s WALL (       1 calls)
     stress       :    784.92s CPU    786.93s WALL (       1 calls)

     Called by init_run:
     wfcinit      :   1053.61s CPU   1060.83s WALL (       1 calls)
     wfcinit:atom :      0.95s CPU      1.41s WALL (      20 calls)
     wfcinit:wfcr :   1046.78s CPU   1053.06s WALL (      20 calls)
     potinit      :      1.47s CPU      1.53s WALL (       1 calls)
     hinit0       :      0.52s CPU      0.55s WALL (       1 calls)

     Called by electrons:
     c_bands      :  46093.81s CPU  46271.27s WALL (      17 calls)
     sum_band     :   3800.97s CPU   3822.39s WALL (      17 calls)
     v_of_rho     :      7.59s CPU      7.84s WALL (      17 calls)
     v_h          :      0.66s CPU      0.69s WALL (      17 calls)
     v_xc         :      7.73s CPU      7.98s WALL (      19 calls)
     newd         :     74.27s CPU     80.75s WALL (      17 calls)
     PAW_pot      :     15.69s CPU     15.70s WALL (      17 calls)
     mix_rho      :      2.36s CPU      2.40s WALL (      17 calls)

     Called by c_bands:
     init_us_2    :     63.19s CPU     63.33s WALL (     740 calls)
     cegterg      :  45882.05s CPU  46059.13s WALL (     340 calls)

     Called by sum_band:
     sum_band:wei :      0.06s CPU      0.06s WALL (      17 calls)
     sum_band:loo :   3687.46s CPU   3701.27s WALL (      17 calls)
     sum_band:buf :     15.80s CPU     15.83s WALL (     340 calls)
     sum_band:ini :     29.37s CPU     29.43s WALL (     340 calls)
     sum_band:cal :   2548.50s CPU   2552.35s WALL (     340 calls)
     sum_band:bec :      0.96s CPU      0.96s WALL (     340 calls)
     addusdens    :    109.94s CPU    117.47s WALL (      17 calls)
     addusd:skk   :      0.78s CPU      1.10s WALL (      51 calls)
     addusd:dgemm :     79.42s CPU     85.41s WALL (      51 calls)
     addusd:qvan2 :     28.75s CPU     28.80s WALL (      51 calls)

     Called by *egterg:
     cdiaghg      :    307.26s CPU    307.45s WALL (    1848 calls)
     cegterg:over :   5656.19s CPU   5661.03s WALL (    1528 calls)
     cegterg:upda :   3443.15s CPU   3452.72s WALL (    1528 calls)
     cegterg:last :   9135.15s CPU   9143.99s WALL (     764 calls)
     h_psi        :  18700.39s CPU  18818.48s WALL (    1888 calls)
     s_psi        :   6659.45s CPU   6670.35s WALL (    1888 calls)
     g_psi        :     29.45s CPU     29.47s WALL (    1528 calls)

     Called by h_psi:
     h_psi:calbec :   6703.80s CPU   6712.71s WALL (    1888 calls)
     vloc_psi     :   5300.53s CPU   5390.18s WALL (    1888 calls)
     add_vuspsi   :   6672.62s CPU   6681.11s WALL (    1888 calls)

     General routines
     calbec       :   9981.91s CPU   9994.80s WALL (    2328 calls)
     fft          :      6.08s CPU      6.43s WALL (     213 calls)
     ffts         :      0.53s CPU      0.55s WALL (      17 calls)
     fftw         :   5102.14s CPU   5167.20s WALL (  450336 calls)

     Parallel routines
     fft_scatt_xy :   1291.64s CPU   1304.89s WALL (  450566 calls)
     fft_scatt_yz :    508.86s CPU    533.99s WALL (  450566 calls)

     PAW routines
     PAW_pot      :     15.69s CPU     15.70s WALL (      17 calls)
     PAW_symme    :      0.05s CPU      0.05s WALL (      34 calls)

     PWSCF        :     14h34m CPU     14h37m WALL


   This run was terminated on:   6:24: 6   5Apr2024            

=------------------------------------------------------------------------------=
   JOB DONE.
=------------------------------------------------------------------------------=
