 --invoking executable--
/opt/cfour/2.1/bin/xjoda


   *************************************************************************
         <<<     CCCCCC     CCCCCC   |||     CCCCCC     CCCCCC   >>>
       <<<      CCC        CCC       |||    CCC        CCC         >>>
      <<<      CCC        CCC        |||   CCC        CCC            >>>
    <<<        CCC        CCC        |||   CCC        CCC              >>>
      <<<      CCC        CCC        |||   CCC        CCC            >>>
       <<<      CCC        CCC       |||    CCC        CCC         >>>
         <<<     CCCCCC     CCCCCC   |||     CCCCCC     CCCCCC   >>>
   *************************************************************************

     ****************************************************************
     * CFOUR Coupled-Cluster techniques for Computational Chemistry *
     ****************************************************************


   Department of Chemistry                Institut fuer Physikalische Chemie
   University of Florida                  Universitaet Mainz
   Gainesville, FL 32611, USA             D-55099 Mainz, Germany

   Department of Chemistry                Fakultaet fuer Chemie und Biowiss.
   Johns Hopkins University               Karlsruher Institut fuer Technologie
   Baltimore, MD 21218, USA               D-76131 Karlsruhe, Germany

   Department of Chemistry                Department of Physical Chemistry
   Southern Methodist University          Eotvos Lorand University
   Dallas, TX 75275, USA                  H-1053 Budapest, Hungary


                       Version 2.1

                     node009                                           
                     Thu 29 May 2025 01:38:35 PM PDT                   
                     integer*8 version is running

********************************************************************************
*                          Input from ZMAT file                                *
********************************************************************************
Frequencies on CO, S0                                                           
C                                                                               
O 1 rCO                                                                         
                                                                                
rCO = 1.144618043127180                                                         
                                                                                
*ACES2(CALC = CCSD(T)                                                           
      BASIS = SPECIAL                                                           
FROZEN_CORE = ON                                                                
        VIB = ANALYTIC                                                          
   SCF_CONV = 10                                                                
    CC_CONV = 8                                                                 
 LINEQ_CONV = 8                                                                 
   SCF_MAXCYC = 500                                                             
    CC_MAXCYC = 500                                                             
 LINEQ_MAXCYC = 500                                                             
  CPHF_MAXCYC = 500                                                             
       MEMORY = 4                                                               
     MEM_UNIT = GB)                                                             
                                                                                
C:cc-pVDZ                                                                       
O:cc-pVDZ                                                                       
                                                                                
********************************************************************************
    -------------------------------------------------------------------
                    CFOUR Control Parameters 
    -------------------------------------------------------------------
        External           Internal           Value            Units
          Name               Name
    -------------------------------------------------------------------
       ABCDTYPE             IABCDT         STANDARD    [  0]    ***   
       ANHARMONIC           IANHAR         OFF         [  0]    ***   
       ANH_ALGORIT          IANALG         STANDARD    [  0]    ***   
       ANH_DERIVAT          IANDER         SECOND      [  1]    ***   
       ANH_MODE             ANHMOD         VIBRATION   [  0]    ***   
       ANH_STEPSIZ          ICUBST             50000          x 10-6  
       ANH_SYMMETR          IANHSM         ABELIAN     [  0]    ***   
       AO_LADDERS           IAOLAD         SINGLEPASS  [  1]    ***   
       AV_SCF               IAVSCF         OFF         [  0]    ***   
       BASIS                IBASIS         SPECIAL     [  0]    ***   
       BOTHVECTORS          BOTHVC         OFF         [  0]    ***   
       BOX_POTENT           IPIAB          OFF         [  0]    ***   
       BREIT                IBREIT         OFF         [  0]    ***   
       BRUCK_CONV           IBRTOL          10D-  4             ***   
       BRUECKNER            IBRKNR         OFF         [  0]    ***   
       BUFFERSIZE           IBUFFS              4096            ***   
       CACHE_RECS           ICHREC             10               ***   
       CALCLEVEL            ICLLVL         CCSD(T)     [ 22]    ***   
       CCORBOPT             ICCORB         OFF         [  0]  x 0.01  
       CC_CONV              ICCCNV          10D-  8             ***   
       CC_EXPORDER          ICCEOR              5               ***   
       CC_EXTRAPOL          ICCEXT         DIIS        [  1]    ***   
       CC_GUESS             ICCGES         MP2         [  0]    ***   
       CC_MAXCYC            ICCCYC            500              cycles 
       CC_PROGRAM           ICCPRO         VCC         [  0]    ***   
       CHARGE               ICHRGE              0               ***   
       CHOLESKY             ICHOLE         OFF         [  0]    ***   
       CIS_CONV             ICISTL              5               ***   
       COMM_SIZE            IPSIZE            ***               ***   
       CONSTANT             ICONST         OLD         [  1]    ***   
       CONTINUUM            ICONTU         NONE        [  0]    ***   
       CONTRACTION          ICNTYP         GENERAL     [  1]    ***   
       COORDINATES          ICOORD         INTERNAL    [  0]    ***   
       CPHF_CONVER          ICPHFT          10D- 16             ***   
       CPHF_MAXCYC          ICPHFC            500              cycles 
       CUBIC                ICUBIC         OFF         [  0]    ***   
       CURVILINEAR          ICURVY         OFF         [  0]    ***   
       DBOC                 IDBOC          OFF         [  0]    ***   
       DCT                  IDCT           OFF         [  0]    ***   
       DERIV_LEV            IDRLVL         SECOND      [  2]    ***   
       DEVMEM_SIZE          IDVMEM         *********           MByte  
       DIAG_MRCC            IEOMST          10D-  0             ***   
       DIFF_TYPE            IDIFTY         RELAXED     [  0]    ***   
       DIRECT               IDIRCT         OFF         [  0]    ***   
       DROPMO               IDRPMO      NONE         
       ECP                  IECP           OFF         [  0]    ***   
       EIGENVECTOR          IVEC                1               ***   
       EL_ANHARM            IELANH         OFF         [  0]    ***   
       EOMFOLLOW            IEOMSR         ENERGY      [  0]    ***   
       EOMIP                IEOMIP         OFF         [  0]    ***   
       EOMLEVEL             HBARFM         SAME        [  0]    ***   
       EOM_MRCC             IMRCCE         NEW         [  1]    ***   
       EOM_NONIT            EOMNON         OFF         [  0]    ***   
       EOM_NSING            IEOMSI          10D-  0             ***   
       EOM_NSTATES          IMRCCD         DAVIDSON    [  0]    ***   
       EOM_NTRIP            IEOMTR          10D-  0             ***   
       EOM_ORDER            IEXORD         ENERGY      [  0]    ***   
       EOM_PROPSTA          IEOMST              0               ***   
       ESTATE_CONV          IEXTOL          10D-  5             ***   
       ESTATE_DIAG          IEXDIG         ITERATIVE   [  0]    ***   
       ESTATE_LOCK          IESLOC         ON          [  1]    ***   
       ESTATE_MAXC          IEXMXC             40               ***   
       ESTATE_PROP          IEXPRP         OFF         [  0]    ***   
       EVAL_HESS            IRECAL              0            # of cyc.
       EXCITATION           IEXCIT              0               ***   
       EXCITE               IEXCIT         NONE        [  0]    ***   
       EXTERN_POT           IEXPOT         OFF         [  0]    ***   
       FCGRADNEW            IFCGNW         OFF         [  0]    ***   
       FC_FIELD             IFINFC              0             x 10-6  
       FD_CALTYPE           IFDCAL         GRADONLY    [  0]    ***   
       FD_PROJECT           IFDPRJ         OFF         [  1]    ***   
       FD_STEPSIZE          IDISFD              0            10-4 bohr
       FD_USEGROUP          IFDGRP         FULL        [  0]    ***   
       FILE_RECSIZ          IFLREC              4096           words  
       FINITE_PERT          IFIPER              0             x 10-6  
       FIXGEOM              IFIXGM         OFF         [  0]    ***   
       FOCK                 IFOCK          AO          [  1]    ***   
       FREQ_ALGORI          IVIALG         STANDARD    [  0]    ***   
       FROZEN_CORE          IFROCO         ON          [  1]    ***   
       GAMMA_ABCD           IGABCD         STORE       [  0]    ***   
       GAMMA_ABCI           IGABCI         STORE       [  0]    ***   
       GENBAS_1             IGNBS1              0               ***   
       GENBAS_2             IGNBS2              0               ***   
       GENBAS_3             IGNBS3              0               ***   
       GENBAS_4             IGNBS4              0               ***   
       GEO_CONV             ICONTL              5              H/bohr 
       GEO_MAXCYC           IOPTCY             50               ***   
       GEO_MAXSTEP          IMXSTP            300            millibohr
       GEO_METHOD           INR            SINGLE_POINT[  5]    ***   
       GIAO                 IGIAO          OFF         [  1]    ***   
       GIMIC                IGIMIC         OFF         [  0]    ***   
       GRID                 IGRID          OFF         [  0]    ***   
       GRID_ALGO            IGALGO         SERIAL      [  0]    ***   
       GUESS                IGUESS         MOREAD      [  0]    ***   
       HBAR                 IHBAR          OFF         [  0]    ***   
       HESS_TYPE            IHESTP         SCF         [  0]    ***   
       HF2_FILE             IHF2Fl         USE         [  1]    ***   
       HFSTABILITY          ISTABL         OFF         [  0]    ***   
       INCORE               INCORE         OFF         [  0]    ***   
       INPUT_MRCC           IMRCC          ON          [  1]    ***   
       INTEGRALS            INTTYP         VMOL        [  1]    ***   
       JODA_PRINT           IJPRNT              0               ***   
       KEYWORD_OUT          IDMPKW         NO          [  0]    ***   
       LINDEP_TOL           ILINDP              8               ***   
       LINEQ_CONV           IZTACN          10D-  8           cycles  
       LINEQ_EXPOR          ILMAXD              5               ***   
       LINEQ_MAXCY          ILMAXC            500               ***   
       LINEQ_TYPE           ILTYPE         DIIS        [  1]    ***   
       LOCK_ORBOCC          ILOCOC         OFF         [  0]    ***   
       MEMORY_SIZE          IMEMSZ         500000000           words  
       MEM_UNIT             IMEMU          GB          [  3]    ***   
       MRCC                 IMRCCC         OFF         [  0]    ***   
       MULTIPLICTY          IMULTP              1               ***   
       NACOUPLING           IVCOUP         OFF         [  0]    ***   
       NEGEVAL              IDIE           ABORT       [  0]    ***   
       NEWNORM              INEWNO         OFF         [  0]    ***   
       NON-HF               INONHF         OFF         [  0]    ***   
       NTOP_TAMP            ITOPT2             15               ***   
       NUC_MODEL            INUCMO         POINT       [  0]    ***   
       OCCUPATION           IOCCU   ESTIMATED BY SCF 
       OPEN-SHELL           IOPEN          SPIN-ORBITAL[  0]    ***   
       OPTVIB               IOPTVB         OFF         [  0]    ***   
       ORBITALS             IORBTP         STANDARD    [  0]    ***   
       PARALLEL             IPARAL         ON          [  1]    ***   
       PARA_INT             IPINTS         ON          [  1]    ***   
       PARA_PRINT           IPPRIN              0               ***   
       PERT_ORB             IPTORB         CANONICAL   [  1]    ***   
       POINTS               IGRDFD              0               ***   
       PRINT                IPRNT               0               ***   
       PROPS                IPROPS         OFF         [  0]    ***   
       PROP_INTEGR          IINTYP         INTERNAL    [  0]    ***   
       PSI                  IPSI           OFF         [  0]    ***   
       QC_ALG               IQCALG         FLM         [  0]    ***   
       QC_LINALG            IQCLIN         TRIDIAG     [  2]    ***   
       QC_MAXCYC            IQCMAX          10D-100           cycles  
       QC_MAXSCFCY          IQCMSC          10D- 15           cycles  
       QC_RTRUST            IQCRTR          10D-  0           x 10-3  
       QC_SKIPSCF           IQCSKI         OFF         [  0]    ***   
       QC_START             IQCSTA          10D-  1             ***   
       QRHFGUESS            IQGUES         OFF         [  0]    ***   
       QUARTIC              IQUART         OFF         [  0]    ***   
       RAMAN_INT            IRAMIN         OFF         [  0]    ***   
       RAMAN_ORB            IRAMRE         UNRELAXED   [  0]    ***   
       RDO                  IRDOFM         ON          [  1]    ***   
       REDUCE_REPR          REDREP         Ir          [  0]    ***   
       REFERENCE            IREFNC         RHF         [  0]    ***   
       RELATIVIST           IRELAT         OFF         [  0]    ***   
       RELAX_DENS           IRDENS         ON          [  1]    ***   
       RESET_FLAGS          IRESET         OFF         [  0]    ***   
       RESTART_CC           ICCRES         OFF         [  0]    ***   
       ROT_EVEC             ROTVEC              0               ***   
       SAVE_INTS            ISVINT         OFF         [  0]    ***   
       SCALE_ON             ISTCRT              0               ***   
       SCF_CONV             ISCFCV          10D- 10             ***   
       SCF_DAMPING          IDAMP               0             x 10-3  
       SCF_EXPORDE          IRPPOR              6               ***   
       SCF_EXPSTAR          IRPPLS              8               ***   
       SCF_EXTRAPO          IRPP           ON          [  1]    ***   
       SCF_MAXCYC           ISCFCY            500              cycles 
       SCF_NOSTOP           ISCFST         OFF         [  0]    ***   
       SCF_PRINT            ISCFPR              0               ***   
       SCF_PROG             ISCFPR         SCF         [  0]    ***   
       SD_FIELD             IFINSD              0             x 10-6  
       SOPERT               IPERSO         OFF         [  0]    ***   
       SPHERICAL            IDFGHI         ON          [  1]    ***   
       SPINORBIT            ISOCAL         OFF         [  0]    ***   
       SPINROTATIO          ISRCON         OFF         [  0]    ***   
       SPIN_FLIP            ISPFLP         OFF         [  0]    ***   
       SPIN_ORBIT           ISPORB         OFF         [  0]    ***   
       SPIN_SCAL            ISCSMP         OFF         [  0]    ***   
       STEEPSCALE           ISTPSC              1000          x 10-3  
       SUBGROUP             ISUBGP         DEFAULT     [  0]    ***   
       SUBGRPAXIS           ISBXYZ         X           [  0]    ***   
       SYMMETRY             ISYM           ON          [  0]    ***   
       SYM_CHECK            ISYMCK         OVERRIDE    [  1]    ***   
       T3_EXTRAPOL          IT3EXT         OFF         [  0]    ***   
       T4_EXTRAPOL          IT4EXP         OFF         [  0]    ***   
       TAMP_SUM             IEVERY              5               ***   
       TESTSUITE            ITESTS         OFF         [  0]    ***   
       THERMOCH             ITHERM         ON          [  1]    ***   
       TOL_CHOLESK          ITOLCH          10D-  4             ***   
       TRANGRAD             IRESRM         OFF         [  0]    ***   
       TRANS_INV            ITRAIN         USE         [  0]    ***   
       TREAT_PERT           ITREAT         SIMULTANEOUS[  0]    ***   
       TRIP_ALGORI          ITRALG         NORMAL      [  0]    ***   
       UIJ_THRESHO          IUIJTH              1               ***   
       UNITS                IUNITS         ANGSTROM    [  0]    ***   
       UNOS                 IUNOS          OFF         [  0]    ***   
       UPDATE_HESS          IHUPDT         ON          [  1]    ***   
       VIBPHASE             ISETPH         STANDARD    [  0]    ***   
       VIBRATION            IVIB           ANALYTIC    [  1]    ***   
       VIB_ALGORIT          IGEALG         STANDARD    [  0]    ***   
       VNATORB              IVNORB         OFF         [  0]    ***   
       VTRAN                IVTRAN         FULL/PARTIAL[  0]    ***   
       XFIELD               IXEFLD              0             x 10-6  
       XFORM_TOL            IXFTOL          10D- 11             ***   
       YFIELD               IYEFLD              0             x 10-6  
       ZFIELD               IZEFLD              0             x 10-6  
       ZSCALE_EXP           IZEXPS         OFF         [  0]    ***   
    -------------------------------------------------------------------
   2 entries found in Z-matrix 
   Job Title : Frequencies on CO, S0                                                           
   There are  1 unique internal coordinates.
   Of these,  0 will be optimized.
   User supplied Z-matrix: 
--------------------------------------------------------------------------------
       SYMBOL    BOND      LENGTH    ANGLE     ANGLE     DIHED     ANGLE
                  TO      (ANGST)    WRT      (DEG)      WRT      (DEG)
--------------------------------------------------------------------------------
        C    
        O          1         rCO  
                  *Initial values for internal coordinates* 
                      Name             Value
                        rCO             1.1446180431
--------------------------------------------------------------------------------
   Rotational constants (in cm-1): 
          1.8766848796             1.8766848796
   Rotational constants (in MHz): 
      56261.6051763259         56261.6051763259
********************************************************************************
   The full molecular point group is CXv .
   The largest Abelian subgroup of the full molecular point group is C2v .
   The computational point group is C2v .
********************************************************************************
--------------------------------------------------------------------------------
   Analysis of internal coordinates specified by Z-matrix 
--------------------------------------------------------------------------------
   *The nuclear repulsion energy is   22.191246200002208 a.u.
   *There is   1 degree of freedom within the tot. symm. molecular subspace.
   *Z-matrix requests optimization of   0 coordinates.
   *The optimization is constrained.
   *The following   1 parameters can have non-zero 
    derivatives within the totally symmetric subspace:
             rCO  [ 1]
   *The following   0 parameters are to be optimized:

   *The following coordinates must be varied in an  unconstrained optimization.
             rCO  [ 1]
--------------------------------------------------------------------------------


 ----------------------------------------------------------------
         Coordinates used in calculation (QCOMP) 
 ----------------------------------------------------------------
 Z-matrix   Atomic            Coordinates (in bohr)
  Symbol    Number           X              Y              Z
 ----------------------------------------------------------------
     C         6        -0.00000000     0.00000000     1.23584022
     O         8         0.00000000     0.00000000    -0.92717485
 ----------------------------------------------------------------

   Interatomic distance matrix (Angstroms) 

                 C             O    
                [ 1]        [ 2]
  C    [ 1]     0.00000
  O    [ 2]     1.14462     0.00000
 rotcon2
   Rotational constants (in cm-1): 
          1.8766848796             0.0000000000
   Rotational constants (in MHz): 
      56261.6051763259             0.0000000000
  ECPDATA file not present.   Using default ECPDATA. 
  There are   2 frozen-core orbitals.
  There are   28 basis functions.
 @CHECKOUT-I, Total execution time (CPU/WALL):        0.51/       1.10 seconds.
--executable xjoda finished with status     0 in        1.13 seconds (walltime).
 --invoking executable--
/opt/cfour/2.1/bin/xvmol

Running with 4 threads/proc

 SERIAL VERSION OF MOLECULE STARTED
********************************************************************************
                    INPUT FROM MOL FILE
********************************************************************************
INTGRL        1    0    1    0    0    0    0    0    0                         
         *** CFOUR Program System (Release V0.1) ***                            
Frequencies on CO, S0                                                           
    2    2 X  Y       0.10E-08              0    0                              
   9999.00      3.00                                                            
          6.00000000    1    3    1    1    1                                   
C #1  -0.000000000000000   0.000000000000000   1.235840218818948                
    9    3                                                                      
   6665.0000000000000        6.9200000000000002E-004  -1.4600000000000000E-004  
   1000.0000000000000        5.3290000000000004E-003  -1.1540000000000001E-003  
   228.00000000000000        2.7077000000000000E-002  -5.7250000000000001E-003  
   64.709999999999994       0.10171800000000000       -2.3311999999999999E-002  
   21.059999999999999       0.27473999999999998       -6.3954999999999998E-002  
   7.4950000000000001       0.44856400000000002      -0.14998100000000000       
   2.7970000000000002       0.28507399999999999      -0.12726199999999999       
  0.52149999999999996        1.5204000000000001E-002  0.54452900000000004       
  0.15959999999999999       -3.1909999999999998E-003  0.58049600000000001       
    4    2                                                                      
   9.4390000000000001        3.8108999999999997E-002   0.0000000000000000       
   2.0019999999999998       0.20948000000000000        0.0000000000000000       
  0.54559999999999997       0.50855700000000004        0.0000000000000000       
  0.15170000000000000       0.46884199999999998        1.0000000000000000       
    1    1                                                                      
  0.55000000000000004        1.0000000000000000                                 
          8.00000000    1    3    1    1    1                                   
O #2   0.000000000000000   0.000000000000000  -0.927174853313198                
    9    3                                                                      
   11720.000000000000        7.1000000000000002E-004  -1.6000000000000001E-004  
   1759.0000000000000        5.4700000000000000E-003  -1.2630000000000000E-003  
   400.80000000000001        2.7837000000000001E-002  -6.2670000000000000E-003  
   113.70000000000000       0.10480000000000000       -2.5715999999999999E-002  
   37.030000000000001       0.28306199999999998       -7.0924000000000001E-002  
   13.270000000000000       0.44871899999999998      -0.16541100000000000       
   5.0250000000000004       0.27095200000000003      -0.11695500000000000       
   1.0129999999999999        1.5458000000000000E-002  0.55736799999999997       
  0.30230000000000001       -2.5850000000000001E-003  0.57275900000000002       
    4    2                                                                      
   17.699999999999999        4.3018000000000001E-002   0.0000000000000000       
   3.8540000000000001       0.22891300000000001        0.0000000000000000       
   1.0460000000000000       0.50872799999999996        0.0000000000000000       
  0.27529999999999999       0.46053100000000002        1.0000000000000000       
    1    1                                                                      
   1.1850000000000001        1.0000000000000000                                 
FINISH                                                                          

********************************************************************************
 ONE- AND TWO-ELECTRON INTEGRALS OVER SYMMETRY-ADAPTED AOS ARE CALCULATED.

  SPHERICAL HARMONICS ARE USED.
  
  INTEGRALS LESS THAN  0.10E-13 ARE NEGLECTED.

  NUCLEAR REPULSION ENERGY :   22.1912462000 A.U.
  @MOLECU-I, ONE ELECTRON INTEGRALS (CPU/WALL):        0.01/       0.00 SECONDS.
  @TWOEL-I,       3781 INTEGRALS OF SYMMETRY TYPE  I I I I
  @TWOEL-I,       7776 INTEGRALS OF SYMMETRY TYPE  I J I J
  @TWOEL-I,       4860 INTEGRALS OF SYMMETRY TYPE  I I J J
  @TWOEL-I,       2708 INTEGRALS OF SYMMETRY TYPE  I J K L
  @TWOEL-I, TOTAL NUMBER OF 2-E INTEGRALS      19125.
  @MOLECU-I, TWO ELECTRON INTEGRALS (CPU/WALL):        0.18/       0.05 SECONDS.
 @CHECKOUT-I, Total execution time (CPU/WALL):        0.21/       0.05 seconds.
--executable xvmol finished with status     0 in        0.07 seconds (walltime).
 --invoking executable--
/opt/cfour/2.1/bin/xvmol2ja
 @GETMEM-I,  Allocated    3814 MB of main memory.
 @CHECKOUT-I, Total execution time (CPU/WALL):        0.02/       0.01 seconds.
--executable xvmol2ja finished with status     0 in        0.02 seconds (walltime).
 --invoking executable--
/opt/cfour/2.1/bin/xvscf
  There are   28 functions in the AO basis.

  There are 4 irreducible representations.

       Irrep        # of functions
         1                 14
         2                  6
         3                  6
         4                  2


  Parameters for SCF calculation: 
        SCF reference function:  RHF  
  Maximum number of iterations:  500
     Full symmetry point group: CXv 
     Computational point group: C2v 
        Initial density matrix: MOREAD                 
     SCF convergence tolerance: 10**(-10)
  DIIS convergence acceleration:  ON
          Latest start for DIIS:   8
                     DIIS order:   6

  Memory information:      71522 words required.
  Fock matrices are constructed from AO integral file.
 @GETMEM-I,  Allocated       0 MB of main memory.
  Initialization and symmetry analysis required      0.006 seconds.

  @INITGES-I, Occupancies from core Hamiltonian:

          Alpha population by irrep:   5    1    1    0
           Beta population by irrep:   5    1    1    0


 total no. of electrons in initial guess :   0.0000000000000000     
  --------------------------------------------------------------------
  Iteration         Total Energy            Largest Density Difference
  --------------------------------------------------------------------
       0            22.191246200002212              0.0000000000D+00
   current occupation vector 
     5  1  1  0
     5  1  1  0
       1          -102.308066707742370              0.1125399031D+02
   current occupation vector 
     5  1  1  0
     5  1  1  0
       2           -99.599129833376779              0.1095116221D+02
   current occupation vector 
     5  1  1  0
     5  1  1  0
       3          -103.563008754147901              0.9815224547D+01
   current occupation vector 
     5  1  1  0
     5  1  1  0
       4           -99.281856132284787              0.1031378576D+02
   current occupation vector 
     5  1  1  0
     5  1  1  0
       5          -103.277285520684060              0.1040828228D+02
   current occupation vector 
     5  1  1  0
     5  1  1  0
       6           -99.253809724380844              0.1060828666D+02
   current occupation vector 
     5  1  1  0
     5  1  1  0
       7          -103.269712873956763              0.1061044668D+02
   current occupation vector 
     5  1  1  0
     5  1  1  0
       8           -99.254033272910334              0.1061671250D+02
   current occupation vector 
     5  1  1  0
     5  1  1  0
       9          -112.500531706734051              0.9823067909D+01
   current occupation vector 
     5  1  1  0
     5  1  1  0
      10          -112.692735590723601              0.5376225481D+00
   current occupation vector 
     5  1  1  0
     5  1  1  0
      11          -112.745896637948334              0.2332027026D+00
   current occupation vector 
     5  1  1  0
     5  1  1  0
      12          -112.747044244464462              0.4571854019D-01
   current occupation vector 
     5  1  1  0
     5  1  1  0
      13          -112.747128843713597              0.2792731466D-01
   current occupation vector 
     5  1  1  0
     5  1  1  0
      14          -112.747134605980818              0.5897345040D-02
   current occupation vector 
     5  1  1  0
     5  1  1  0
      15          -112.747134739859263              0.7102026925D-03
   current occupation vector 
     5  1  1  0
     5  1  1  0
      16          -112.747134741002441              0.7355890246D-04
   current occupation vector 
     5  1  1  0
     5  1  1  0
      17          -112.747134741012445              0.3342640982D-05
   current occupation vector 
     5  1  1  0
     5  1  1  0
      18          -112.747134741012559              0.7002565849D-06
   current occupation vector 
     5  1  1  0
     5  1  1  0
      19          -112.747134741012530              0.1136235781D-06
   current occupation vector 
     5  1  1  0
     5  1  1  0
      20          -112.747134741012729              0.1865612931D-07
   current occupation vector 
     5  1  1  0
     5  1  1  0
      21          -112.747134741012843              0.1958946116D-08
   current occupation vector 
     5  1  1  0
     5  1  1  0
      22          -112.747134741013014              0.5240212708D-09
   current occupation vector 
     5  1  1  0
     5  1  1  0
      23          -112.747134741012871              0.1291375895D-09
   current occupation vector 
     5  1  1  0
     5  1  1  0

  SCF has converged.

 Density matrix saved to file den.dat
 total electron number:   14.000000000000004     
     E(SCF)=      -112.747134741012843              0.2815059297D-10

  Eigenvector printing suppressed.

 @PUTMOS-I, Writing converged MOs to NEWMOS. 
 @PUTMOS-I, Symmetry   1 Full Blocks  3 Partial Blocksize   2
 @PUTMOS-I, Symmetry   2 Full Blocks  1 Partial Blocksize   2
 @PUTMOS-I, Symmetry   3 Full Blocks  1 Partial Blocksize   2
 @PUTMOS-I, Symmetry   4 Full Blocks  0 Partial Blocksize   2
 @PUTFOCK-I, Writing converged Fock matrix to NEWFOCK. 
 @PUTFOCK-I, Symmetry   1 Full Blocks  3 Partial Blocksize   2
 @PUTFOCK-I, Symmetry   2 Full Blocks  1 Partial Blocksize   2
 @PUTFOCK-I, Symmetry   3 Full Blocks  1 Partial Blocksize   2
 @PUTFOCK-I, Symmetry   4 Full Blocks  0 Partial Blocksize   2



  ORBITAL EIGENVALUES (ALPHA)  (1H = 27.2113834 eV)

       MO #        E(hartree)               E(eV)           FULLSYM    COMPSYM
       ----   --------------------   --------------------   -------   ---------
    1     1         -20.6697015789        -562.4511744262     SG+        A1 (1)
    2     2         -11.3733124728        -309.4835662254     SG+        A1 (1)
    3     3          -1.5115647948         -41.1317691657     SG+        A1 (1)
    4     4          -0.8005908117         -21.7851835227     SG+        A1 (1)
    5    15          -0.6273717753         -17.0716539126      PI        B1 (2)
    6    21          -0.6273717753         -17.0716539126      PI        B2 (3)
    7     5          -0.5507009087         -14.9853335652     SG+        A1 (1)
  +++++++++++++++++++++++++++++++++++++++++++++++++++++++++++++++++++++++++++++
    8    16           0.1478926483           4.0243635544      PI        B1 (2)
    9    22           0.1478926483           4.0243635544      PI        B2 (3)
   10     6           0.3813730818          10.3776891485     SG+        A1 (1)
   11    17           0.6716031544          18.2752509284      PI        B1 (2)
   12    23           0.6716031544          18.2752509284      PI        B2 (3)
   13     7           0.7247599932          19.7217220466     SG+        A1 (1)
   14     8           0.9956617103          27.0933325347     SG+        A1 (1)
   15     9           1.0597364252          28.8368941688     SG+        A1 (1)
   16    24           1.2272257876          33.3945114260      PI        B2 (3)
   17    18           1.2272257876          33.3945114260      PI        B1 (2)
   18    10           1.3438075167          36.5668615533      DE        A1 (1)
   19    27           1.3438075167          36.5668615533      DE        A2 (4)
   20    19           1.5451186131          42.0448149791      PI        B1 (2)
   21    25           1.5451186131          42.0448149791      PI        B2 (3)
   22    11           1.9385817359          52.7514908673     SG+        A1 (1)
   23    12           2.3096381699          62.8484497559     SG+        A1 (1)
   24    28           2.9350073868          79.8656112839      DE        A2 (4)
   25    13           2.9350073868          79.8656112839      DE        A1 (1)
   26    26           3.4102256881          92.7969586800      PI        B2 (3)
   27    20           3.4102256881          92.7969586800      PI        B1 (2)
   28    14           3.8480498070         104.7107586410     SG+        A1 (1)


  VSCF finished.

 @CHECKOUT-I, Total execution time (CPU/WALL):        0.10/       0.03 seconds.
--executable xvscf finished with status     0 in        0.04 seconds (walltime).
 --invoking executable--
/opt/cfour/2.1/bin/xvtran
 @GETMEM-I,  Allocated    3814 MB of main memory.
  Full RHF integral transformation
  Frozen-core orbitals requested within analytic derivative calculation
  Transformation of IIII integrals :
  1 pass through the AO integral file was required.
        3781 AO integrals were read.
        4581 MO integrals were written to HF2.
  Transformation of IIJJ integrals :
  1 pass through the AO integral file was required.
        4860 AO integrals were read.
        5258 MO integrals were written to HF2.
  Transformation of IJIJ integrals :
  1 pass through the AO integral file was required.
        7776 AO integrals were read.
        8273 MO integrals were written to HF2.
  Transformation of IJKL integrals :
  1 pass through the AO integral file was required.
        2708 AO integrals were read.
        2880 MO integrals were written to HF2.
  Summary of active molecular orbitals: 
------------------------------------------------------------------------

  Index      Eigenvalue    Symmetry    Index      Eigenvalue    Symmetry
------------------------------------------------------------------------
     1       -20.6697016        1        15         2.9350074        1
     2       -11.3733125        1        16         3.8480498        1
     3        -1.5115648        1        17         0.1478926        2
     4        -0.8005908        1        18         0.6716032        2
     5        -0.5507009        1        19         1.2272258        2
     6        -0.6273718        2        20         1.5451186        2
     7        -0.6273718        3        21         3.4102257        2
     8         0.3813731        1        22         0.1478926        3
     9         0.7247600        1        23         0.6716032        3
    10         0.9956617        1        24         1.2272258        3
    11         1.0597364        1        25         1.5451186        3
    12         1.3438075        1        26         3.4102257        3
    13         1.9385817        1        27         1.3438075        4
    14         2.3096382        1        28         2.9350074        4
------------------------------------------------------------------------
  -20.669701578867784       -11.373312472803113       -1.5115647948176294      -0.80059081166284696      -0.55070090869495092      -0.62737177532098731      -0.62737177532098698       0.38137308184505786       0.72475999315115813       0.99566171026299433        1.0597364251885608        1.3438075167227646        1.9385817358818060        2.3096381698801540        2.9350073867927939        3.8480498070155011       0.14789264828223447       0.67160315444888974        1.2272257876462256        1.5451186130826049        3.4102256881197608       0.14789264828223458       0.67160315444889518        1.2272257876462249        1.5451186130826069        3.4102256881197581        1.3438075167227717        2.9350073867927913     
 @CHECKOUT-I, Total execution time (CPU/WALL):        0.04/       0.01 seconds.
--executable xvtran finished with status     0 in        0.02 seconds (walltime).
 --invoking executable--
/opt/cfour/2.1/bin/xintprc
 @GETMEM-I,  Allocated    3814 MB of main memory.
  @GMOIAA-I, Processing MO integrals for spin case AA.
  @GMOIAA-I, Generation of integral list completed.
                      TYPE                NUMBER
                      ----               --------
                      PPPP                  6655
                      PPPH                  8365
                      PPHH                  2785
                      PHPH                  1787
                      PHHH                  1216
                      HHHH                   184

                     TOTAL                 20992

  @FORMT2-I, Second-order MP correlation energies:
            ------------------------------------------------
            E(SCF)                  =   -112.747134741013 a.u.
            E2(AA)                  =     -0.038401188515 a.u.
            E2(AB)                  =     -0.212856005188 a.u.
            E2(TOT)                 =     -0.289658382218 a.u.
            Total MP2 energy        =   -113.036793123231 a.u.
            ------------------------------------------------
   Largest T2 amplitudes for spin case AB:
       _       _                 _       _                 _       _
   i   j   a   b             i   j   a   b             i   j   a   b
-----------------------------------------------------------------------------
[  7   7  22  22]-0.06844 [  6   6  17  17]-0.06844 [  6   7  17  22]-0.05514
[  7   6  22  17]-0.05514 [  5   5  22  22]-0.04086 [  5   5  17  17]-0.04086
[  5   5   9   9]-0.03826 [  6   6  19  19]-0.02812 [  7   7  24  24]-0.02812
[  7   7  24  22]-0.02392 [  7   7  22  24]-0.02392 [  6   6  17  19]-0.02392
[  6   6  19  17]-0.02392 [  4   4  11  11]-0.02270 [  7   6  24  19]-0.02182
-----------------------------------------------------------------------------
   Norm of T2AB vector (     6017 symmetry allowed elements):  0.2640660377.
-----------------------------------------------------------------------------
 @CHECKOUT-I, Total execution time (CPU/WALL):        0.05/       0.01 seconds.
--executable xintprc finished with status     0 in        0.02 seconds (walltime).
  calling xvcc 
 --invoking executable--
/opt/cfour/2.1/bin/xvcc
 @GETMEM-I,  Allocated    3814 MB of main memory.
   CCSD(T) energy will be calculated.
   The total correlation energy is -0.289658382218 a.u.
   The total correlation energy is -0.282449454067 a.u.
  Convergence information after     1 iterations: 
  Largest element of residual vector :  0.33504723E-01.
  Largest element of DIIS residual   :  0.33504723E-01.
   The total correlation energy is -0.295599171573 a.u.
  Convergence information after     2 iterations: 
  Largest element of residual vector : -0.10267245E-01.
  Largest element of DIIS residual   : -0.80940786E-02.
   The total correlation energy is -0.294858614540 a.u.
  Convergence information after     3 iterations: 
  Largest element of residual vector :  0.53976990E-02.
  Largest element of DIIS residual   :  0.23956446E-02.
   The total correlation energy is -0.296604825766 a.u.
  Convergence information after     4 iterations: 
  Largest element of residual vector : -0.70389987E-03.
  Largest element of DIIS residual   :  0.52090277E-03.
   The total correlation energy is -0.296735023167 a.u.
  Convergence information after     5 iterations: 
  Largest element of residual vector : -0.28449092E-03.
  Largest element of DIIS residual   :  0.57891022E-04.
   The total correlation energy is -0.296745161203 a.u.
  Convergence information after     6 iterations: 
  Largest element of residual vector :  0.35405342E-04.
  Largest element of DIIS residual   :  0.24995609E-04.
   The total correlation energy is -0.296747241307 a.u.
  Convergence information after     7 iterations: 
  Largest element of residual vector :  0.12616911E-04.
  Largest element of DIIS residual   : -0.38778782E-05.
   The total correlation energy is -0.296747389613 a.u.
  Convergence information after     8 iterations: 
  Largest element of residual vector :  0.46254593E-05.
  Largest element of DIIS residual   :  0.38431285E-05.
   The total correlation energy is -0.296748074915 a.u.
  Convergence information after     9 iterations: 
  Largest element of residual vector : -0.71544687E-06.
  Largest element of DIIS residual   :  0.53637923E-06.
   The total correlation energy is -0.296748002238 a.u.
  Convergence information after    10 iterations: 
  Largest element of residual vector :  0.50239973E-06.
  Largest element of DIIS residual   :  0.19966094E-06.
   The total correlation energy is -0.296748038008 a.u.
  Convergence information after    11 iterations: 
  Largest element of residual vector : -0.42945337E-07.
  Largest element of DIIS residual   :  0.35733100E-07.
   The total correlation energy is -0.296748042953 a.u.
  Convergence information after    12 iterations: 
  Largest element of residual vector :  0.18742043E-07.
  Largest element of DIIS residual   : -0.72600307E-08.
   The total correlation energy is -0.296748042467 a.u.
  Convergence information after    13 iterations: 
  Largest element of residual vector :  0.37189408E-08.
  Largest element of DIIS residual   :  0.27189905E-08.
  Amplitude equations converged in    13iterations.
   The total correlation energy is -0.296748042442 a.u.
   The CC iterations have converged.

   Largest T1 amplitudes for spin case AA:
   i       a                 i       a                 i       a    
-----------------------------------------------------------------------------
[  7      22    ] 0.03760 [  6      17    ] 0.03760 [  6      18    ] 0.01737
[  7      23    ] 0.01737 [  5       8    ] 0.01173 [  6      19    ]-0.00939
[  7      24    ]-0.00939 [  6      20    ] 0.00848 [  7      25    ] 0.00848
[  5      10    ]-0.00778 [  4      10    ] 0.00617 [  5      11    ] 0.00456
[  3      14    ]-0.00415 [  4      11    ]-0.00408 [  6      21    ] 0.00346
-----------------------------------------------------------------------------
   Norm of T1AA vector (       55 symmetry allowed elements):  0.0641670681.
-----------------------------------------------------------------------------
   Largest T2 amplitudes for spin case AB:
       _       _                 _       _                 _       _
   i   j   a   b             i   j   a   b             i   j   a   b
-----------------------------------------------------------------------------
[  7   7  22  22]-0.07877 [  6   6  17  17]-0.07877 [  5   5  17  17]-0.06121
[  5   5  22  22]-0.06121 [  7   6  22  17]-0.05206 [  6   7  17  22]-0.05206
[  5   5   9   9]-0.04621 [  6   6  19  19]-0.02765 [  7   7  24  24]-0.02765
[  7   7  24  22]-0.02714 [  7   7  22  24]-0.02714 [  6   6  19  17]-0.02714
[  6   6  17  19]-0.02714 [  5   5  20  17]-0.02515 [  5   5  17  20]-0.02515
-----------------------------------------------------------------------------
   Norm of T2AB vector (     6017 symmetry allowed elements):  0.2983792415.
-----------------------------------------------------------------------------
       Summary of iterative solution of CC equations 
      -----------------------------------------------------------
                       Correlation           Total
       Iteration         Energy              Energy
      -----------------------------------------------------------
            0        -0.289658382218    -113.036793123231  DIIS 
            1        -0.282449454067    -113.029584195080  DIIS 
            2        -0.295599171573    -113.042733912586  DIIS 
            3        -0.294858614540    -113.041993355553  DIIS 
            4        -0.296604825766    -113.043739566779  DIIS 
            5        -0.296735023167    -113.043869764180  DIIS 
            6        -0.296745161203    -113.043879902216  DIIS 
            7        -0.296747241307    -113.043881982320  DIIS 
            8        -0.296747389613    -113.043882130626  DIIS 
            9        -0.296748074915    -113.043882815928  DIIS 
           10        -0.296748002238    -113.043882743251  DIIS 
           11        -0.296748038008    -113.043882779020  DIIS 
           12        -0.296748042953    -113.043882783966  DIIS 
           13        -0.296748042442    -113.043882783455  DIIS 
      -----------------------------------------------------------
      A miracle has come to pass. The CC iterations have converged.
        E(CCSD)           =    -113.043882783455
        E(CCSD + T(CCSD)) =    -113.056665110115
        E(CCSD(T))        =    -113.054975980122
 @CHECKOUT-I, Total execution time (CPU/WALL):        0.53/       0.13 seconds.
--executable xvcc finished with status     0 in        0.15 seconds (walltime).
 --invoking executable--
/opt/cfour/2.1/bin/xlambda
 @GETMEM-I,  Allocated    3814 MB of main memory.
 The Lambda equations are solved for CCSD(T).
  Initial lambda amplitudes: 
   Frozen core orbitals in analytic derivative calculation
  Convergence information after     1 iterations: 
  Largest element of residual vector : -0.30782278E-01.
  Largest element of DIIS residual   : -0.30782278E-01.
   Frozen core orbitals in analytic derivative calculation
  Convergence information after     2 iterations: 
  Largest element of residual vector :  0.96230007E-02.
  Largest element of DIIS residual   : -0.25059389E-02.
   Frozen core orbitals in analytic derivative calculation
  Convergence information after     3 iterations: 
  Largest element of residual vector : -0.12790157E-02.
  Largest element of DIIS residual   : -0.41226320E-03.
   Frozen core orbitals in analytic derivative calculation
  Convergence information after     4 iterations: 
  Largest element of residual vector : -0.26389476E-03.
  Largest element of DIIS residual   : -0.87080571E-04.
   Frozen core orbitals in analytic derivative calculation
  Convergence information after     5 iterations: 
  Largest element of residual vector : -0.53191881E-04.
  Largest element of DIIS residual   :  0.22416727E-04.
   Frozen core orbitals in analytic derivative calculation
  Convergence information after     6 iterations: 
  Largest element of residual vector : -0.10311527E-04.
  Largest element of DIIS residual   : -0.66999547E-05.
   Frozen core orbitals in analytic derivative calculation
  Convergence information after     7 iterations: 
  Largest element of residual vector : -0.38921747E-05.
  Largest element of DIIS residual   : -0.18676868E-05.
   Frozen core orbitals in analytic derivative calculation
  Convergence information after     8 iterations: 
  Largest element of residual vector : -0.11204148E-05.
  Largest element of DIIS residual   : -0.38345012E-06.
   Frozen core orbitals in analytic derivative calculation
  Convergence information after     9 iterations: 
  Largest element of residual vector : -0.20050495E-06.
  Largest element of DIIS residual   : -0.11434316E-06.
   Frozen core orbitals in analytic derivative calculation
  Convergence information after    10 iterations: 
  Largest element of residual vector : -0.64828580E-07.
  Largest element of DIIS residual   : -0.48430360E-07.
   Frozen core orbitals in analytic derivative calculation
  Convergence information after    11 iterations: 
  Largest element of residual vector : -0.24506448E-07.
  Largest element of DIIS residual   : -0.13404294E-07.
   Frozen core orbitals in analytic derivative calculation
  Convergence information after    12 iterations: 
  Largest element of residual vector : -0.79947072E-08.
  Largest element of DIIS residual   : -0.43936384E-08.
  Amplitude equations converged in    12 iterations.

  Full Fbar is constructed for CCSD second derivatives

      The lambda equations have converged.
 @CHECKOUT-I, Total execution time (CPU/WALL):        0.19/       0.05 seconds.
--executable xlambda finished with status     0 in        0.06 seconds (walltime).
 --invoking executable--
/opt/cfour/2.1/bin/xdens
 @GETMEM-I,  Allocated    3814 MB of main memory.
  CCSD(T) density and intermediates are calculated.
  The perturbed orbitals are chosen canonical.
  The iterative expansion of D(ai) converged after  16 iterations.
  ----------------------------------------------------------------------
                 Natural orbital occupation numbers
  ----------------------------------------------------------------------
  2.00002  2.00001  1.98428  1.96814  1.94143  1.93648  1.93648  0.06628
  0.06628  0.02418  0.01214  0.00854  0.00742  0.00742  0.00650  0.00624
  0.00624  0.00483  0.00483  0.00218  0.00200  0.00200  0.00172  0.00172
  0.00106  0.00067  0.00067  0.00022
  Trace of density matrix :  14.0000000000.
  ----------------------------------------------------------------------
  Density calculation successfully completed.
 @CHECKOUT-I, Total execution time (CPU/WALL):        0.07/       0.02 seconds.
--executable xdens finished with status     0 in        0.03 seconds (walltime).
 --invoking executable--
/opt/cfour/2.1/bin/xvdint
 @GETMEM-I,  Allocated    3814 MB of main memory.
 One- and two-electron integral derivatives are calculated
 for RHF-CC/MBPT hessians and dipole derivatives.
 Spherical gaussians are used.
  magnet F F
 Evaluation of 1e integral derivatives required    0.22 seconds.
 Evaluation of 2el integral derivatives
 Evaluation of 2e integral derivatives required    0.20 seconds.
 @CHECKOUT-I, Total execution time (CPU/WALL):        0.42/       0.14 seconds.
--executable xvdint finished with status     0 in        0.16 seconds (walltime).
 --invoking executable--
/opt/cfour/2.1/bin/xcphf
 @GETMEM-I,  Allocated    3814 MB of main memory.
 Coupled-perturbed HF (CPHF) equations 
 are solved for RHF-CC/MBPT hessian and dipole derivatives.
  irreducible representation Nr.                     1
  # geometric perturbations                         2
  # electric field perturbations                     1
  irreducible representation Nr.                     2
  # geometric perturbations                         2
  # electric field perturbations                     1
  irreducible representation Nr.                     3
  # geometric perturbations                         2
  # electric field perturbations                     1
  irreducible representation Nr.                     4
  # geometric perturbations                         0
  # electric field perturbations                     0
 There are 3 perturbations within irrep 1.
 CPHF converged after  19 iterations.
  Tolerances in treatment of perturbed canonical orbitals:
     Tol1:    0.00001000 Tol2:    1.00000000
  Tolerances in treatment of perturbed canonical orbitals:
     Tol1:    0.00001000 Tol2:    1.00000000
  Tolerances in treatment of perturbed canonical orbitals:
     Tol1:    0.00001000 Tol2:    1.00000000
   Perturbed canonical restriction dropped for orbital pair   4[1] ;   5[1]
  (U[ij] element of     0.16312D+01 is above threshold)
   Perturbed canonical restriction dropped for orbital pair   5[1] ;   4[1]
  (U[ij] element of    -0.16312D+01 is above threshold)
 There are 3 perturbations within irrep 2.
 CPHF converged after  18 iterations.
  Tolerances in treatment of perturbed canonical orbitals:
     Tol1:    0.00001000 Tol2:    1.00000000
  Tolerances in treatment of perturbed canonical orbitals:
     Tol1:    0.00001000 Tol2:    1.00000000
  Tolerances in treatment of perturbed canonical orbitals:
     Tol1:    0.00001000 Tol2:    1.00000000
   Perturbed canonical restriction dropped for orbital pair   5[1] ;   1[2]
  (U[ij] element of    -0.35656D+01 is above threshold)
   Perturbed canonical restriction dropped for orbital pair   1[2] ;   5[1]
  (U[ij] element of     0.35656D+01 is above threshold)
 There are 3 perturbations within irrep 3.
 CPHF converged after  18 iterations.
  Tolerances in treatment of perturbed canonical orbitals:
     Tol1:    0.00001000 Tol2:    1.00000000
  Tolerances in treatment of perturbed canonical orbitals:
     Tol1:    0.00001000 Tol2:    1.00000000
  Tolerances in treatment of perturbed canonical orbitals:
     Tol1:    0.00001000 Tol2:    1.00000000
   Perturbed canonical restriction dropped for orbital pair   5[1] ;   1[3]
  (U[ij] element of    -0.35656D+01 is above threshold)
   Perturbed canonical restriction dropped for orbital pair   1[3] ;   5[1]
  (U[ij] element of     0.35656D+01 is above threshold)

                     SCF static dipole polarizability
                     --------------------------------

                         Ex          Ey          Ez

            Ex       8.019315    0.000000    0.000000
            Ey       0.000000    8.019315    0.000000
            Ez       0.000000    0.000000   12.454054


  There are                     6  special pairs.
 @CHECKOUT-I, Total execution time (CPU/WALL):        0.03/       0.01 seconds.
--executable xcphf finished with status     0 in        0.03 seconds (walltime).
 --invoking executable--
/opt/cfour/2.1/bin/xsdcc
 @GETMEM-I,  Allocated    3814 MB of main memory.
 Vibrational frequencies and infrared intensities are calculated
 at the CCSD(T) level within the harmonic approximation.
 Perturbed canonical orbitals are used.
 CPHF coefficients for vrt-vrt block: U^x(a,b) = -1/2 S^x(a,b)
 Transformation of derivative integrals from AO to MO basis:
 RHF transformation
 Transformation of DIIII integral derivatives.
 1 pass through the AO integral derivative file was needed.
      3455 AO integral derivatives were read from file DIIII.
 Transformation of first index required    0.0 seconds.
 Transformation of remaining indices required    0.0 seconds.
     19709 MO integral derivatives were written to file DERINT.
 Transformation of DIIJJ integral derivatives.
 1 pass through the AO integral derivative file was needed.
      4408 AO integral derivatives were read from file DIIJJ.
 Transformation of first index required    0.0 seconds.
 Transformation of remaining indices required    0.0 seconds.
     17850 MO integral derivatives were written to file DERINT.
 Transformation of DIJIJ integral derivatives.
 1 pass through the AO integral derivative file was needed.
      7190 AO integral derivatives were read from file DIJIJ.
 Transformation of first index required    0.0 seconds.
 Transformation of remaining indices required    0.0 seconds.
     35700 MO integral derivatives were written to file DERINT.
 Transformation of DIJKL integral derivatives.
 1 pass through the AO integral derivative file was needed.
      2520 AO integral derivatives were read from file DIJKL.
 Transformation of first index required    0.0 seconds.
 Transformation of remaining indices required    0.0 seconds.
     14856 MO integral derivatives were written to file DERINT.
        MO basis integral derivatives are being calculated
             (Symmetry block 1, perturbation   2)
 First derivative of the wavefunction is calculated (Symmetry block 1, perturbation   2)
   Frozen core orbitals in analytic derivative calculation
 Resorts of perturbed amplitudes and integrals required   0.0 seconds.
 Construction of <Phi|(dH_N/dx exp(T))c|0> required   0.0 seconds.
 Starting iterative solution of the perturbed CC equations.
 The DIIS procedure is used to accelerate convergence.
 Convergence criterion is 10**(-8).
 Maximum number of iterations is 500.
   Frozen core orbitals in analytic derivative calculation
   Frozen core orbitals in analytic derivative calculation
 Convergence information after     1 iterations: 
 Largest element of residual vector : -0.19322848E-01.
 Largest element of DIIS residual   : -0.19322848E-01.
   Frozen core orbitals in analytic derivative calculation
 Convergence information after     2 iterations: 
 Largest element of residual vector :  0.57041788E-02.
 Largest element of DIIS residual   :  0.58130694E-02.
   Frozen core orbitals in analytic derivative calculation
 Convergence information after     3 iterations: 
 Largest element of residual vector : -0.32692392E-02.
 Largest element of DIIS residual   : -0.19186263E-02.
   Frozen core orbitals in analytic derivative calculation
 Convergence information after     4 iterations: 
 Largest element of residual vector :  0.66716453E-03.
 Largest element of DIIS residual   : -0.39629600E-03.
   Frozen core orbitals in analytic derivative calculation
 Convergence information after     5 iterations: 
 Largest element of residual vector : -0.22633144E-03.
 Largest element of DIIS residual   : -0.12372813E-03.
   Frozen core orbitals in analytic derivative calculation
 Convergence information after     6 iterations: 
 Largest element of residual vector : -0.69663909E-04.
 Largest element of DIIS residual   : -0.29628228E-04.
   Frozen core orbitals in analytic derivative calculation
 Convergence information after     7 iterations: 
 Largest element of residual vector : -0.11569158E-04.
 Largest element of DIIS residual   : -0.74700871E-05.
   Frozen core orbitals in analytic derivative calculation
 Convergence information after     8 iterations: 
 Largest element of residual vector : -0.39016626E-05.
 Largest element of DIIS residual   : -0.17734477E-05.
   Frozen core orbitals in analytic derivative calculation
 Convergence information after     9 iterations: 
 Largest element of residual vector : -0.12723185E-05.
 Largest element of DIIS residual   : -0.82418320E-06.
   Frozen core orbitals in analytic derivative calculation
 Convergence information after    10 iterations: 
 Largest element of residual vector : -0.40876956E-06.
 Largest element of DIIS residual   :  0.25149585E-06.
   Frozen core orbitals in analytic derivative calculation
 Convergence information after    11 iterations: 
 Largest element of residual vector : -0.10005953E-06.
 Largest element of DIIS residual   : -0.42514177E-07.
   Frozen core orbitals in analytic derivative calculation
 Convergence information after    12 iterations: 
 Largest element of residual vector : -0.24766799E-07.
 Largest element of DIIS residual   :  0.18179848E-07.
   Frozen core orbitals in analytic derivative calculation
 Convergence information after    13 iterations: 
 Largest element of residual vector :  0.10356408E-07.
 Largest element of DIIS residual   :  0.75931500E-08.
 Perturbed amplitude equations converged in    13 iterations.
  Dominant contributions to perturbed wavefunction:
    7    0   22    0  -0.0686777434 AA  
    6    0   17    0  -0.0686777434 AA  
    7    7   22   22   0.0545858739 ABAB
    6    6   17   17   0.0545858739 ABAB
    7    6   22   17   0.0321047866 ABAB
    6    7   17   22   0.0321047866 ABAB
    4    4   17   17   0.0299913378 ABAB
    4    4   22   22   0.0299913378 ABAB
    5    4   22   22  -0.0276299753 ABAB
    4    5   22   22  -0.0276299753 ABAB
    5    4   17   17  -0.0276299753 ABAB
    4    5   17   17  -0.0276299753 ABAB
    7    5   22   10   0.0261602229 ABAB
    5    7   10   22   0.0261602229 ABAB
    6    5   17   10   0.0261602229 ABAB
    5    6   10   17   0.0261602229 ABAB
    7    0   23    0  -0.0260610189 AA  
    6    0   18    0  -0.0260610189 AA  
    5    5   10   10   0.0248551515 ABAB
    7    7   25   22  -0.0217303701 ABAB
  Total CCSD gradient is    0.074484980673953.
  norm of converged amps   0.26370824153037242     
  special occupied indices: 
   Memory requirement in dtrp1rhfd                 50309
  There are                    77  ijk combinations. 
 PARA: timing for (T) xsdcc                0.37 seconds.
   Frozen core orbitals in analytic derivative calculation
 Starting iterative solution of the perturbed Lambda equations.
 The DIIS procedure is used to accelerate convergence.
 Convergence criterion is 10**(-8).
 Maximum number of iterations is 500.
   Frozen core orbitals in analytic derivative calculation
 Convergence information after     1 iterations: 
 Largest element of residual vector : -0.28809711E-01.
 Largest element of DIIS residual   : -0.28809711E-01.
   Frozen core orbitals in analytic derivative calculation
 Convergence information after     2 iterations: 
 Largest element of residual vector :  0.94397497E-02.
 Largest element of DIIS residual   :  0.77854883E-02.
   Frozen core orbitals in analytic derivative calculation
 Convergence information after     3 iterations: 
 Largest element of residual vector : -0.33981371E-02.
 Largest element of DIIS residual   : -0.14760224E-02.
   Frozen core orbitals in analytic derivative calculation
 Convergence information after     4 iterations: 
 Largest element of residual vector :  0.69442606E-03.
 Largest element of DIIS residual   : -0.44458631E-03.
   Frozen core orbitals in analytic derivative calculation
 Convergence information after     5 iterations: 
 Largest element of residual vector : -0.25773921E-03.
 Largest element of DIIS residual   : -0.13105259E-03.
   Frozen core orbitals in analytic derivative calculation
 Convergence information after     6 iterations: 
 Largest element of residual vector : -0.75997595E-04.
 Largest element of DIIS residual   :  0.29130807E-04.
   Frozen core orbitals in analytic derivative calculation
 Convergence information after     7 iterations: 
 Largest element of residual vector : -0.14116810E-04.
 Largest element of DIIS residual   : -0.53060256E-05.
   Frozen core orbitals in analytic derivative calculation
 Convergence information after     8 iterations: 
 Largest element of residual vector : -0.30308660E-05.
 Largest element of DIIS residual   : -0.12990399E-05.
   Frozen core orbitals in analytic derivative calculation
 Convergence information after     9 iterations: 
 Largest element of residual vector : -0.60812731E-06.
 Largest element of DIIS residual   : -0.57930691E-06.
   Frozen core orbitals in analytic derivative calculation
 Convergence information after    10 iterations: 
 Largest element of residual vector : -0.15762196E-06.
 Largest element of DIIS residual   : -0.90280422E-07.
   Frozen core orbitals in analytic derivative calculation
 Convergence information after    11 iterations: 
 Largest element of residual vector : -0.63650239E-07.
 Largest element of DIIS residual   : -0.50119556E-07.
   Frozen core orbitals in analytic derivative calculation
 Convergence information after    12 iterations: 
 Largest element of residual vector : -0.16084187E-07.
 Largest element of DIIS residual   :  0.92810982E-08.
 Perturbed Lambda equations converged in    12 iterations.
  Dominant contributions to perturbed wavefunction:
    7    7   22   22   0.0777330878 ABAB
    6    6   17   17   0.0777330878 ABAB
    7    6   22   17   0.0510685061 ABAB
    6    7   17   22   0.0510685061 ABAB
    4    4   17   17   0.0319278647 ABAB
    4    4   22   22   0.0319278647 ABAB
    5    4   17   17  -0.0316895644 ABAB
    5    4   22   22  -0.0316895644 ABAB
    4    5   17   17  -0.0316895644 ABAB
    4    5   22   22  -0.0316895644 ABAB
    7    5   22   10   0.0296495945 ABAB
    5    7   10   22   0.0296495945 ABAB
    6    5   17   10   0.0296495945 ABAB
    5    6   10   17   0.0296495945 ABAB
    5    5   10   10   0.0267739386 ABAB
    7    7   26   22   0.0255602651 ABAB
    7    7   22   26   0.0255602651 ABAB
    6    6   21   17   0.0255602651 ABAB
    6    6   17   21   0.0255602651 ABAB
    5    0   10    0   0.0253679662 AA  
  Total CCSD gradient is    0.088245185759646.
 First-order density matrix is being calculated  (Symmetry block 1, perturbation   2)
  There are                     6  special pairs.
 Calculation of the contributions of <pq||rs> to dI(i,j)/dx required   0.0 seconds.
 Calculation of the contributions of <pq||rs> to dI(a,b)/dx required   0.0 seconds.
  dD(ij)/dx contribution from formdxij
    0.00000000000000      0.00000000000000     -0.00010902025377     -0.00002181549790
   -0.00010322356499      0.00000000000000      0.00000000000000     -0.00006587482721
    0.00032795315698     -0.00002321221246     -0.00010902025377     -0.00006587482721
    0.00576160544618     -0.00381246885411     -0.00401067093705     -0.00002181549790
    0.00032795315698     -0.00381246885411      0.01303754624083     -0.00358520211811
   -0.00010322356499     -0.00002321221246     -0.00401067093705     -0.00358520211811
    0.01180679097251      0.03040686997452      0.03040686997452
 oo  -1.0598522320169059E-002
 oo   1.0598522320169041E-002
 Calculation of the contributions of <pq||rs> to dI(i,a)/dx required   0.0 seconds.
 First-order Z-vector equations are solved for 1 perturbation.
 Convergence reached after  19 iterations.
        U*G(pq,rs) contribution is being calculated
             (Symmetry block 1, perturbation   2)

 CCSD(T) contribution to force constants 

        0.0000000000        0.0000000000        0.0000000000
        0.0000000000        0.0000000000        0.0000000000
       -0.0240707789        0.0240707789        0.0000000000
        0.0000000000        0.0000000000        0.0000000000
        0.0000000000        0.0000000000        0.0000000000
        0.0000000000        0.0000000000        0.0000000000
        0.0000000000        0.0000000000        0.0000000000
        0.0000000000        0.0000000000        0.0000000000
        0.0000000000        0.0000000000        0.0000000000
        0.0000000000        0.0000000000        0.0000000000
        0.0000000000        0.0000000000        0.0000000000
        0.0000000000        0.0000000000        0.0000000000

 CCSD(T) contribution to dipole derivatives 

        0.0000000000        0.0000000000        0.0000000000
        0.0000000000        0.0000000000        0.0000000000
        0.0000000000        0.0000000000        0.0000000000
        0.0000000000        0.0000000000        0.0000000000
        0.0000000000        0.2363574404        0.0000000000
        0.0000000000        0.0000000000        0.0000000000
 @CHECKOUT-I, Total execution time (CPU/WALL):        0.93/       0.25 seconds.
--executable xsdcc finished with status     0 in        0.26 seconds (walltime).
 --invoking executable--
/opt/cfour/2.1/bin/xanti
 @GETMEM-I,  Allocated    3814 MB of main memory.
 CCSD(T) MO derivative gammas will be sorted to Mulliken order.
 @CHECKOUT-I, Total execution time (CPU/WALL):        0.01/       0.00 seconds.
--executable xanti finished with status     0 in        0.02 seconds (walltime).
 --invoking executable--
/opt/cfour/2.1/bin/xbcktrn
 @GETMEM-I,  Allocated    3814 MB of main memory.
 @CHECKOUT-I, Total execution time (CPU/WALL):        0.03/       0.01 seconds.
--executable xbcktrn finished with status     0 in        0.02 seconds (walltime).
 --invoking executable--
/opt/cfour/2.1/bin/xvdint
 @GETMEM-I,  Allocated    3814 MB of main memory.
 One- and two-electron integral derivatives are calculated
 for RHF-CC/MBPT hessians and dipole derivatives.
 Spherical gaussians are used.
  magnet F F
 Evaluation of 2el integral derivatives

                      Two-electron integral gradient
                      ------------------------------

                         C #1 z    -0.0303939419
                         O #2 z     0.0303939419


 C #1       0.0000000000            0.0000000000           -0.0303939419
 O #2       0.0000000000            0.0000000000            0.0303939419


 Evaluation of 2e integral derivatives required    0.40 seconds.
  contribution to Hessian
       -0.0303939419        0.0303939419        0.0000000000
        0.0000000000        0.0000000000        0.0000000000
 @CHECKOUT-I, Total execution time (CPU/WALL):        0.39/       0.12 seconds.
--executable xvdint finished with status     0 in        0.14 seconds (walltime).
 --invoking executable--
/opt/cfour/2.1/bin/xsdcc
 @GETMEM-I,  Allocated    3814 MB of main memory.
 Vibrational frequencies and infrared intensities are calculated
 at the CCSD(T) level within the harmonic approximation.
 Perturbed canonical orbitals are used.
 CPHF coefficients for vrt-vrt block: U^x(a,b) = -1/2 S^x(a,b)
 Transformation of derivative integrals from AO to MO basis:
 RHF transformation
 Transformation of DIIIJ integral derivatives.
 3 passes through the AO integral derivative file were needed.
      9402 AO integral derivatives were read from file DIIIJ.
 Transformation of first index required    0.0 seconds.
 Transformation of remaining indices required    0.0 seconds.
     40668 MO integral derivatives were written to file DERINT.
 Transformation of DIIJK integral derivatives.
 2 passes through the AO integral derivative file were needed.
      2994 AO integral derivatives were read from file DIIJK.
 Transformation of first index required    0.0 seconds.
 Transformation of remaining indices required    0.0 seconds.
     14244 MO integral derivatives were written to file DERINT.
 Transformation of DIJIK integral derivatives.
 2 passes through the AO integral derivative file were needed.
      5178 AO integral derivatives were read from file DIJIK.
 Transformation of first index required    0.0 seconds.
 Transformation of remaining indices required    0.0 seconds.
     28488 MO integral derivatives were written to file DERINT.
        MO basis integral derivatives are being calculated
             (Symmetry block 2, perturbation   2)
 First derivative of the wavefunction is calculated (Symmetry block 2, perturbation   2)
   Frozen core orbitals in analytic derivative calculation
 Resorts of perturbed amplitudes and integrals required   0.0 seconds.
 Construction of <Phi|(dH_N/dx exp(T))c|0> required   0.0 seconds.
 Starting iterative solution of the perturbed CC equations.
 The DIIS procedure is used to accelerate convergence.
 Convergence criterion is 10**(-8).
 Maximum number of iterations is 500.
   Frozen core orbitals in analytic derivative calculation
   Frozen core orbitals in analytic derivative calculation
 Convergence information after     1 iterations: 
 Largest element of residual vector :  0.13497079E-01.
 Largest element of DIIS residual   :  0.13497079E-01.
   Frozen core orbitals in analytic derivative calculation
 Convergence information after     2 iterations: 
 Largest element of residual vector :  0.53517932E-02.
 Largest element of DIIS residual   :  0.37847700E-02.
   Frozen core orbitals in analytic derivative calculation
 Convergence information after     3 iterations: 
 Largest element of residual vector :  0.35532823E-02.
 Largest element of DIIS residual   :  0.25759834E-02.
   Frozen core orbitals in analytic derivative calculation
 Convergence information after     4 iterations: 
 Largest element of residual vector :  0.16435597E-02.
 Largest element of DIIS residual   :  0.50601158E-03.
   Frozen core orbitals in analytic derivative calculation
 Convergence information after     5 iterations: 
 Largest element of residual vector :  0.39888808E-03.
 Largest element of DIIS residual   : -0.21732800E-03.
   Frozen core orbitals in analytic derivative calculation
 Convergence information after     6 iterations: 
 Largest element of residual vector :  0.82484420E-04.
 Largest element of DIIS residual   : -0.39200697E-04.
   Frozen core orbitals in analytic derivative calculation
 Convergence information after     7 iterations: 
 Largest element of residual vector :  0.15798198E-04.
 Largest element of DIIS residual   :  0.11632642E-04.
   Frozen core orbitals in analytic derivative calculation
 Convergence information after     8 iterations: 
 Largest element of residual vector :  0.71860422E-05.
 Largest element of DIIS residual   : -0.40084772E-05.
   Frozen core orbitals in analytic derivative calculation
 Convergence information after     9 iterations: 
 Largest element of residual vector :  0.27335199E-05.
 Largest element of DIIS residual   :  0.14115626E-05.
   Frozen core orbitals in analytic derivative calculation
 Convergence information after    10 iterations: 
 Largest element of residual vector :  0.11694371E-05.
 Largest element of DIIS residual   :  0.62832610E-06.
   Frozen core orbitals in analytic derivative calculation
 Convergence information after    11 iterations: 
 Largest element of residual vector :  0.19036624E-06.
 Largest element of DIIS residual   : -0.87544850E-07.
   Frozen core orbitals in analytic derivative calculation
 Convergence information after    12 iterations: 
 Largest element of residual vector : -0.51154057E-07.
 Largest element of DIIS residual   : -0.53946397E-07.
   Frozen core orbitals in analytic derivative calculation
 Convergence information after    13 iterations: 
 Largest element of residual vector : -0.23449290E-07.
 Largest element of DIIS residual   :  0.55469434E-08.
 Perturbed amplitude equations converged in    13 iterations.
  Dominant contributions to perturbed wavefunction:
    6    6   17   16   0.0259807281 ABAB
    6    6   16   17   0.0259807281 ABAB
    6    6   17    8  -0.0203513138 ABAB
    6    6    8   17  -0.0203513138 ABAB
    5    5   17   14   0.0181987062 ABAB
    5    5   14   17   0.0181987062 ABAB
    7    6   22   16   0.0174302062 ABAB
    6    7   16   22   0.0174302062 ABAB
    6    6   17   11   0.0173971512 ABAB
    6    6   11   17   0.0173971512 ABAB
    5    5   17   12   0.0154104915 ABAB
    5    5   12   17   0.0154104915 ABAB
    5    5   27   22   0.0154104915 ABAB
    5    5   22   27   0.0154104915 ABAB
    5    5   17    8  -0.0150698277 ABAB
    5    5    8   17  -0.0150698277 ABAB
    7    6   22    8  -0.0148736575 ABAB
    6    7    8   22  -0.0148736575 ABAB
    6    6   17   13   0.0142560984 ABAB
    6    6   13   17   0.0142560984 ABAB
  norm of converged amps   0.15425584991384164     
  special occupied indices: 
   Memory requirement in dtrp1rhfd                 48009
  There are                    77  ijk combinations. 
 PARA: timing for (T) xsdcc                0.37 seconds.
   Frozen core orbitals in analytic derivative calculation
 Starting iterative solution of the perturbed Lambda equations.
 The DIIS procedure is used to accelerate convergence.
 Convergence criterion is 10**(-8).
 Maximum number of iterations is 500.
   Frozen core orbitals in analytic derivative calculation
 Convergence information after     1 iterations: 
 Largest element of residual vector :  0.11688385E-01.
 Largest element of DIIS residual   :  0.11688385E-01.
   Frozen core orbitals in analytic derivative calculation
 Convergence information after     2 iterations: 
 Largest element of residual vector :  0.48974861E-02.
 Largest element of DIIS residual   :  0.36655466E-02.
   Frozen core orbitals in analytic derivative calculation
 Convergence information after     3 iterations: 
 Largest element of residual vector :  0.33687627E-02.
 Largest element of DIIS residual   :  0.24616986E-02.
   Frozen core orbitals in analytic derivative calculation
 Convergence information after     4 iterations: 
 Largest element of residual vector :  0.15657597E-02.
 Largest element of DIIS residual   :  0.49183543E-03.
   Frozen core orbitals in analytic derivative calculation
 Convergence information after     5 iterations: 
 Largest element of residual vector :  0.38607179E-03.
 Largest element of DIIS residual   : -0.20052146E-03.
   Frozen core orbitals in analytic derivative calculation
 Convergence information after     6 iterations: 
 Largest element of residual vector : -0.78312562E-04.
 Largest element of DIIS residual   : -0.35858648E-04.
   Frozen core orbitals in analytic derivative calculation
 Convergence information after     7 iterations: 
 Largest element of residual vector :  0.17128505E-04.
 Largest element of DIIS residual   :  0.12218989E-04.
   Frozen core orbitals in analytic derivative calculation
 Convergence information after     8 iterations: 
 Largest element of residual vector :  0.74509227E-05.
 Largest element of DIIS residual   :  0.38421044E-05.
   Frozen core orbitals in analytic derivative calculation
 Convergence information after     9 iterations: 
 Largest element of residual vector :  0.26659037E-05.
 Largest element of DIIS residual   :  0.11739464E-05.
   Frozen core orbitals in analytic derivative calculation
 Convergence information after    10 iterations: 
 Largest element of residual vector :  0.90206056E-06.
 Largest element of DIIS residual   :  0.51425833E-06.
   Frozen core orbitals in analytic derivative calculation
 Convergence information after    11 iterations: 
 Largest element of residual vector :  0.21444870E-06.
 Largest element of DIIS residual   :  0.75137162E-07.
   Frozen core orbitals in analytic derivative calculation
 Convergence information after    12 iterations: 
 Largest element of residual vector : -0.43755323E-07.
 Largest element of DIIS residual   : -0.44893363E-07.
   Frozen core orbitals in analytic derivative calculation
 Convergence information after    13 iterations: 
 Largest element of residual vector : -0.19580729E-07.
 Largest element of DIIS residual   :  0.72142315E-08.
 Perturbed Lambda equations converged in    13 iterations.
  Dominant contributions to perturbed wavefunction:
    6    6   17   16   0.0284978828 ABAB
    6    6   16   17   0.0284978828 ABAB
    6    6   17    8  -0.0231866535 ABAB
    6    6    8   17  -0.0231866535 ABAB
    7    6   22   16   0.0198191426 ABAB
    6    7   16   22   0.0198191426 ABAB
    5    5   17   14   0.0187431258 ABAB
    5    5   14   17   0.0187431258 ABAB
    7    6   22    8  -0.0176830017 ABAB
    6    7    8   22  -0.0176830017 ABAB
    5    5   17    8  -0.0172200018 ABAB
    5    5    8   17  -0.0172200018 ABAB
    6    6   17   11   0.0161899967 ABAB
    6    6   11   17   0.0161899967 ABAB
    5    5   17   12   0.0154872204 ABAB
    5    5   12   17   0.0154872204 ABAB
    5    5   27   22   0.0154872204 ABAB
    5    5   22   27   0.0154872204 ABAB
    6    6   17   13   0.0148234223 ABAB
    6    6   13   17   0.0148234223 ABAB
 First-order density matrix is being calculated  (Symmetry block 2, perturbation   2)
  There are                     6  special pairs.
 Calculation of the contributions of <pq||rs> to dI(i,j)/dx required   0.0 seconds.
[...]
  Dominant contributions to perturbed wavefunction:
    7    7   22   16   0.0284978828 ABAB
    7    7   16   22   0.0284978828 ABAB
    7    7   22    8  -0.0231866535 ABAB
    7    7    8   22  -0.0231866535 ABAB
    7    6   16   17   0.0198191426 ABAB
    6    7   17   16   0.0198191426 ABAB
    5    5   22   14   0.0187431258 ABAB
    5    5   14   22   0.0187431258 ABAB
    7    6    8   17  -0.0176830017 ABAB
    6    7   17    8  -0.0176830017 ABAB
    5    5   22    8  -0.0172200018 ABAB
    5    5    8   22  -0.0172200018 ABAB
    7    7   22   11   0.0161899967 ABAB
    7    7   11   22   0.0161899967 ABAB
    5    5   22   12  -0.0154872204 ABAB
    5    5   12   22  -0.0154872204 ABAB
    5    5   27   17   0.0154872204 ABAB
    5    5   17   27   0.0154872204 ABAB
    7    7   22   13   0.0148234223 ABAB
    7    7   13   22   0.0148234223 ABAB
 First-order density matrix is being calculated  (Symmetry block 3, perturbation   2)
  There are                     6  special pairs.
 Calculation of the contributions of <pq||rs> to dI(i,j)/dx required   0.0 seconds.
 Calculation of the contributions of <pq||rs> to dI(a,b)/dx required   0.0 seconds.
  dD(ij)/dx contribution from formdxij
    0.00000000000243     -0.00000000002006      0.00000000073438     -0.00000000887211
   -0.00000001713736      0.00000000000243     -0.00000000002006      0.00000000073438
   -0.00000000887211     -0.00000001713736
 oo   3.0390983527525521E-009
 oo  -3.0390983527525513E-009
 Calculation of the contributions of <pq||rs> to dI(i,a)/dx required   0.0 seconds.
 First-order Z-vector equations are solved for 1 perturbation.
 Convergence reached after  17 iterations.
        U*G(pq,rs) contribution is being calculated
             (Symmetry block 3, perturbation   2)

 CCSD(T) contribution to force constants 

        0.0000000000        0.0000000000        0.0000000000
        0.0000000000        0.0000000000        0.0000000000
        0.0000000000        0.0000000000        0.0000000000
        0.0000000000        0.0000000000        0.0000000000
        0.0000000000        0.0000000000        0.0000000000
        0.0000000000        0.0000000000        0.0000000000
        0.0000000000        0.0000000000        0.0000000000
        0.0000000000        0.0000000000        0.0000000000
        0.0000000000        0.0000000000        0.0000000000
        0.0000000000        0.0000000000        0.0000000000
        0.0000000000        0.0000000000        0.0000000000
        0.0000000000       -0.0278252104        0.0278252104

 CCSD(T) contribution to dipole derivatives 

        0.0000000000        0.0000000000        0.0000000000
        0.0000000000        0.0000000000        0.0000000000
        0.0000000000        0.0000000000        0.0000000000
        0.0000000000        0.0000000000       -0.0494071717
        0.0000000000        0.0000000000        0.0000000000
        0.0000000000        0.0000000000        0.0000000000
 @CHECKOUT-I, Total execution time (CPU/WALL):        0.90/       0.24 seconds.
--executable xsdcc finished with status     0 in        0.25 seconds (walltime).
 --invoking executable--
/opt/cfour/2.1/bin/xanti
 @GETMEM-I,  Allocated    3814 MB of main memory.
 CCSD(T) MO derivative gammas will be sorted to Mulliken order.
 @CHECKOUT-I, Total execution time (CPU/WALL):        0.02/       0.00 seconds.
--executable xanti finished with status     0 in        0.02 seconds (walltime).
 --invoking executable--
/opt/cfour/2.1/bin/xbcktrn
 @GETMEM-I,  Allocated    3814 MB of main memory.
 @CHECKOUT-I, Total execution time (CPU/WALL):        0.01/       0.00 seconds.
--executable xbcktrn finished with status     0 in        0.01 seconds (walltime).
 --invoking executable--
/opt/cfour/2.1/bin/xvdint
 @GETMEM-I,  Allocated    3814 MB of main memory.
 One- and two-electron integral derivatives are calculated
 for RHF-CC/MBPT hessians and dipole derivatives.
 Spherical gaussians are used.
  magnet F F
 Evaluation of 2el integral derivatives

                      Two-electron integral gradient
                      ------------------------------

                         C #1 z     0.0000000000
                         O #2 z     0.0000000000


 C #1       0.0000000000           -0.0312282680            0.0000000000
 O #2       0.0000000000            0.0312282680            0.0000000000


 Evaluation of 2e integral derivatives required    0.38 seconds.
  contribution to Hessian
        0.0000000000        0.0000000000        0.0000000000
        0.0000000000       -0.0312282680        0.0312282680
 @CHECKOUT-I, Total execution time (CPU/WALL):        0.38/       0.11 seconds.
--executable xvdint finished with status     0 in        0.12 seconds (walltime).
 --invoking executable--
/opt/cfour/2.1/bin/xanti
 @GETMEM-I,  Allocated    3814 MB of main memory.
 CCSD(T) MO gammas will be sorted to Mulliken order.
 @CHECKOUT-I, Total execution time (CPU/WALL):        0.01/       0.00 seconds.
--executable xanti finished with status     0 in        0.02 seconds (walltime).
 --invoking executable--
/opt/cfour/2.1/bin/xbcktrn
 @GETMEM-I,  Allocated    3814 MB of main memory.
 @CHECKOUT-I, Total execution time (CPU/WALL):        0.02/       0.00 seconds.
--executable xbcktrn finished with status     0 in        0.02 seconds (walltime).
 --invoking executable--
/opt/cfour/2.1/bin/xvdint
 @GETMEM-I,  Allocated    3814 MB of main memory.
 One- and two-electron integral derivatives are calculated
 for RHF-CC/MBPT hessians and dipole derivatives.
 Spherical gaussians are used.
  magnet F F

                     Kinetic energy integral gradient
                     --------------------------------

                         C #1 z    -1.7579482606
                         O #2 z     1.7579482606


 C #1       0.0000000000            0.0000000000           -1.7579482606
 O #2       0.0000000000            0.0000000000            1.7579482606



                   Nuclear attraction integral gradient
                   ------------------------------------

                         C #1 z    26.4362094809
                         O #2 z   -26.4362094809


 C #1       0.0000000000            0.0000000000           26.4362094809
 O #2       0.0000000000            0.0000000000          -26.4362094809



                      Reorthonormalization gradient
                      -----------------------------

                         C #1 z    -0.7705572021
                         O #2 z     0.7705572021


 C #1       0.0000000000            0.0000000000           -0.7705572021
 O #2       0.0000000000            0.0000000000            0.7705572021



                     Kinetic energy integral Hessian
                     -------------------------------


           Symmetry 1

           C #1 z      O #2 z

 C #1 z    1.053680
 O #2 z   -1.053680    1.053680


           Symmetry 2

           C #1 x      O #2 x

 C #1 x   -1.768728
 O #2 x    1.768728   -1.768728


           Symmetry 3

           C #1 y      O #2 y

 C #1 y   -1.768728
 O #2 y    1.768728   -1.768728




           C #1 x      C #1 y      C #1 z      O #2 x      O #2 y      O #2 z

 C #1 x   -1.768728
 C #1 y    0.000000   -1.768728
 C #1 z    0.000000    0.000000    1.053680

 O #2 x    1.768728    0.000000    0.000000   -1.768728
 O #2 y    0.000000    1.768728    0.000000    0.000000   -1.768728
 O #2 z    0.000000    0.000000   -1.053680    0.000000    0.000000    1.053680




                   Nuclear attraction integral Hessian
                   -----------------------------------


           Symmetry 1

           C #1 z      O #2 z

 C #1 z  -13.700958
 O #2 z   13.700958  -13.700958


           Symmetry 2

           C #1 x      O #2 x

 C #1 x   20.545582
 O #2 x  -20.545582   20.545582


           Symmetry 3

           C #1 y      O #2 y

 C #1 y   20.545582
 O #2 y  -20.545582   20.545582




           C #1 x      C #1 y      C #1 z      O #2 x      O #2 y      O #2 z

 C #1 x   20.545582
 C #1 y    0.000000   20.545582
 C #1 z    0.000000    0.000000  -13.700958

 O #2 x  -20.545582    0.000000    0.000000   20.545582
 O #2 y    0.000000  -20.545582    0.000000    0.000000   20.545582
 O #2 z    0.000000    0.000000   13.700958    0.000000    0.000000  -13.700958




                Highest order reorthonormalization Hessian
                ------------------------------------------


           Symmetry 1

           C #1 z      O #2 z

 C #1 z   -0.340057
 O #2 z    0.340057   -0.340057


           Symmetry 2

           C #1 x      O #2 x

 C #1 x   -0.982532
 O #2 x    0.982532   -0.982532


           Symmetry 3

           C #1 y      O #2 y

 C #1 y   -0.982532
 O #2 y    0.982532   -0.982532




           C #1 x      C #1 y      C #1 z      O #2 x      O #2 y      O #2 z

 C #1 x   -0.982532
 C #1 y    0.000000   -0.982532
 C #1 z    0.000000    0.000000   -0.340057

 O #2 x    0.982532    0.000000    0.000000   -0.982532
 O #2 y    0.000000    0.982532    0.000000    0.000000   -0.982532
 O #2 z    0.000000    0.000000    0.340057    0.000000    0.000000   -0.340057




                Electronic contributions to dipole moment
                -----------------------------------------

                               au             Debye

                    z     -0.06500667     -0.16523050

  Conversion factor used: 1 a.u. =   2.54174691 Debye 



   Electronic contributions to static part of dipole moment derivatives
   --------------------------------------------------------------------


                     Total dipole moment derivatives
                     -------------------------------


           Symmetry 1
                              Ez

               C #1 z    -6.13506738
               O #2 z    -7.86493262

           Symmetry 2
                              Ex

               C #1 x    -5.92202211
               O #2 x    -8.07797789

           Symmetry 3
                              Ey

               C #1 y    -5.92202211
               O #2 y    -8.07797789



                       Ex          Ey          Ez

      C #1    x   -5.922022    0.000000    0.000000
      C #1    y    0.000000   -5.922022    0.000000
      C #1    z    0.000000    0.000000   -6.135067

      O #2    x   -8.077978    0.000000    0.000000
      O #2    y    0.000000   -8.077978    0.000000
      O #2    z    0.000000    0.000000   -7.864933

 Evaluation of 1e integral derivatives required    0.23 seconds.
 Evaluation of 2el integral derivatives

                      Two-electron integral gradient
                      ------------------------------

                         C #1 z   -13.6482991595
                         O #2 z    13.6482991595


 C #1       0.0000000000            0.0000000000          -13.6482991595
 O #2       0.0000000000            0.0000000000           13.6482991595


 Evaluation of 2e integral derivatives required    0.20 seconds.

                            Molecular gradient
                            ------------------

                         C #1 z     0.0000005272
                         O #2 z    -0.0000005272


 C #1       0.0000000000            0.0000000000            0.0000005272
 O #2       0.0000000000            0.0000000000           -0.0000005272


  Molecular gradient norm 0.746E-06

                            Molecular hessian
                            -----------------


           Symmetry 1

           C #1 z      O #2 z

 C #1 z    1.192584
 O #2 z   -1.192584    1.192584


           Symmetry 2

           C #1 x      O #2 x

 C #1 x    0.000000
 O #2 x   -0.000000    0.000000


           Symmetry 3

           C #1 y      O #2 y

 C #1 y    0.000000
 O #2 y   -0.000000    0.000000




           C #1 x      C #1 y      C #1 z      O #2 x      O #2 y      O #2 z

 C #1 x    0.000000
 C #1 y    0.000000    0.000000
 C #1 z    0.000000    0.000000    1.192584

 O #2 x   -0.000000    0.000000    0.000000    0.000000
 O #2 y    0.000000   -0.000000    0.000000    0.000000    0.000000
 O #2 z    0.000000    0.000000   -1.192584    0.000000    0.000000    1.192584




                           Total dipole moment
                           -------------------

                               au             Debye

                    z     -0.06736418     -0.17122271

  Conversion factor used: 1 a.u. =   2.54174691 Debye 



                     Total dipole moment derivatives
                     -------------------------------


           Symmetry 1
                              Ez

               C #1 z     0.62524078
               O #2 z    -0.62524078

           Symmetry 2
                              Ex

               C #1 x    -0.03114363
               O #2 x     0.03114363

           Symmetry 3
                              Ey

               C #1 y    -0.03114363
               O #2 y     0.03114363



                       Ex          Ey          Ez

      C #1    x   -0.031144    0.000000    0.000000
      C #1    y    0.000000   -0.031144    0.000000
      C #1    z    0.000000    0.000000    0.625241

      O #2    x    0.031144    0.000000    0.000000
      O #2    y    0.000000    0.031144    0.000000
      O #2    z    0.000000    0.000000   -0.625241

 @CHECKOUT-I, Total execution time (CPU/WALL):        0.43/       0.17 seconds.
--executable xvdint finished with status     0 in        0.18 seconds (walltime).
 --invoking executable--
/opt/cfour/2.1/bin/xjoda
  igrd and ihes are                     0                    0
  gradient from JOBARC 
   0.000000000000000   0.000000000000000   0.000000527236295
   0.000000000000000   0.000000000000000  -0.000000527236295

  masses used (in AMU) in vibrational analysis: 
  12.000000000     15.994914630
                     Normal Coordinate Analysis
  ----------------------------------------------------------------
    Irreducible         Harmonic       Infrared        Type 
   Representation       Frequency      Intensity 
  ----------------------------------------------------------------
                       (cm-1)         (km/mol)
  ----------------------------------------------------------------
      ----                 0.0000i        0.0000      TRANSLATION
      ----                 0.0000i        0.0000      TRANSLATION
      ----                 0.0000         0.0000      TRANSLATION
      ----                 0.9412         0.1379       ROTATION  
      ----                 0.9412         0.1379       ROTATION  
       SG+              2143.9109        55.5848       VIBRATION 
  ----------------------------------------------------------------


                                   Normal Coordinates 

               SG+
              2143.91 
             VIBRATION 
 C      0.000 0.0000  0.7559
 O      0.000 0.0000 -0.6547
            Gradient vector in normal coordinate representation
         ----------------------------------------------------------
   i    W(I)     dE/dQ(i)     dE/dq      dE/dq     [dE/dQ(i)]/w(i)
                              (cm-1)      (eV)        (relative)
         ----------------------------------------------------------
    6  2143.91  0.0000002014      0.01047      0.00000  -0.0000000000
         ----------------------------------------------------------

                      Normal modes in internal coordinates 
---------------------------------------------------------------------------
              0.000         0.000         0.000         0.941         0.941
---------------------------------------------------------------------------
rCO       -0.000000      0.000000      0.000000     -0.000000     -0.000000
---------------------------------------------------------------------------

  ----------------------------------------------------------------
                    Dipole Moment Function
                   (Normal Coordinate Basis)
  ----------------------------------------------------------------
    Mode     Symmetry    d(Mu(x))/dQ   d(Mu(y))/dQ   d(Mu(z))/dQ
  ----------------------------------------------------------------
     Q6         SG+        0.000000      0.000000      0.238784
  ----------------------------------------------------------------
---------------------------------------------------------------------------
------------------------------------------------------------
        Parameter                (MHz)                 (CM-1)
------------------------------------------------------------

           R6                0.000000E+00           0.000000E+00
           R5                -.000000E+00           -.000000E+00
           SI                            0.100000E+81

  A-reduced centrifugal distortion parameters (Ir representation) 

           DJ                0.172454E+00           0.575244E-05
           DK                0.172454E+00           0.575244E-05
           DJK               -.344908E+00           -.115049E-04
           DELJ              0.172454E+00           0.575244E-05
           DELK              0.172454E+00           0.575244E-05
           DELJK             -.344908E+00           -.115049E-04
           delJ              -.000000E+00           -.000000E+00
           delK              0.000000E+00           0.000000E+00

  S-reduced centrifugal distortion parameters (Ir representation) 

           DJ                0.172454E+00           0.575244E-05
           DK                0.172454E+00           0.575244E-05
           DJK               -.344908E+00           -.115049E-04
           D1                0.000000E+00           0.000000E+00
           D2                0.000000E+00           0.000000E+00
------------------------------------------------------------
  null vector returned from NORMAL
   Rotationally projected vibrational frequencies 
            1               0.0000i
            2               0.0000 
            3               0.0000 
            4               0.0000 
            5               0.0000 
            6            2143.9109 
  Zero-point energy:    3.0649 kcal/mol =   12.8234 kJ/mol =    1071.955 cm-1 

  Finite temperature thermodynamic corrections:
=======================================================
Temperature     Entropy       Enthalpy     Gibbs Energy
    (K)        (J/(mol K))    (kJ/mol)      (kJ/mol) 
=======================================================
    298.15      197.8430        8.6772      -50.3097
    100.00      166.0496        2.9101      -13.6949
    200.00      186.2207        5.8201      -31.4240
    300.00      198.0232        8.7311      -50.6759
    400.00      206.4241       11.6517      -70.9179
    500.00      213.0103       14.6041      -91.9010
    600.00      218.4914       17.6114     -113.4835
    700.00      223.2313       20.6871     -135.5748
    800.00      227.4335       23.8349     -158.1119
    900.00      231.2212       27.0514     -181.0477
   1000.00      234.6752       30.3302     -204.3450
   1100.00      237.8522       33.6639     -227.9735
   1200.00      240.7941       37.0452     -251.9077
   1300.00      243.5331       40.4675     -276.1256
   1400.00      246.0953       43.9250     -300.6084
   1500.00      248.5015       47.4127     -325.3395
   1600.00      250.7691       50.9265     -350.3041
   1700.00      252.9130       54.4629     -375.4892
   1800.00      254.9454       58.0187     -400.8830
   1900.00      256.8771       61.5916     -426.4749
   2000.00      258.7174       65.1794     -452.2553
=======================================================
 @CHECKOUT-I, Total execution time (CPU/WALL):        0.08/       0.03 seconds.
--executable xjoda finished with status     0 in        0.04 seconds (walltime).
  The final electronic energy is      -113.054975980122435 a.u. 
  This computation required                            3.32 seconds (walltime).
Attempting to clean /scratch/jearias... save is False. TIME: Thu 29 May 2025 01:38:38 PM PDT
Total of 3 seconds elapsed for this process.
