 --invoking executable--
/pool/dattani/cfour_v2.00beta/bin/xjoda


   *************************************************************************
         <<<     CCCCCC     CCCCCC   |||     CCCCCC     CCCCCC   >>>
       <<<      CCC        CCC       |||    CCC        CCC         >>>
      <<<      CCC        CCC        |||   CCC        CCC            >>>
    <<<        CCC        CCC        |||   CCC        CCC              >>>
      <<<      CCC        CCC        |||   CCC        CCC            >>>
       <<<      CCC        CCC       |||    CCC        CCC         >>>
         <<<     CCCCCC     CCCCCC   |||     CCCCCC     CCCCCC   >>>
   *************************************************************************

     ****************************************************************
     * CFOUR Coupled-Cluster techniques for Computational Chemistry *
     ****************************************************************
 

   Department of Chemistry                Institut fuer Physikalische Chemie
   University of Texas at Austin          Universitaet Mainz
   Austin, TX  78712, USA                 D-55099 Mainz, Germany
 
                       Version 2.00beta
 
                     alnode161                                         
                     Mon Jul 27 05:18:22 CEST 2020                     
                     integer*8 version is running
 
********************************************************************************
*                          Input from ZMAT file                                *
********************************************************************************
hydrogen_molecule                                                               
H                                                                               
H 1 R                                                                           
                                                                                
R=1.41                                                                          
                                                                                
*ACES2(CALC=CCSD,BASIS=SPECIAL,CHARGE=0,PROP=DYNAMICAL                          
SCF_CONV=10                                                                     
CC_PROGRAM=MRCC                                                                 
INPUT_MRCC=ON                                                                   
CC_CONV=10                                                                      
LINEQ_CONV=10                                                                   
DIFFTYPE=UNRELAXED                                                              
MEMORY=14                                                                       
MEM_UNIT=GB)                                                                    
                                                                                
H:aVQZ-EMSL                                                                     
H:aVQZ-EMSL                                                                     
                                                                                
%frequency                                                                      
1                                                                               
0.0856                                                                          
                                                                                
********************************************************************************
    -------------------------------------------------------------------
                    CFOUR Control Parameters 
    -------------------------------------------------------------------
        External           Internal           Value            Units
          Name               Name
    -------------------------------------------------------------------
       ABCDTYPE             IABCDT         STANDARD     [  0]   ***   
       ANHARMONIC           IANHAR         OFF          [  0]   ***   
       ANH_ALGORIT          IANALG         STANDARD     [  0]   ***   
       ANH_DERIVAT          IANDER         SECOND       [  1]   ***   
       ANH_STEPSIZ          ICUBST             50000          x 10-6  
       ANH_SYMMETR          IANHSM         ABELIAN      [  0]   ***   
       AO_LADDERS           IAOLAD         SINGLEPASS   [  1]   ***   
       BASIS                IBASIS         SPECIAL      [  0]   ***   
       BREIT                IBREIT         OFF          [  0]   ***   
       BRUCK_CONV           IBRTOL          10D-  4             ***   
       BRUECKNER            IBRKNR             OFF      [  0]   ***   
       BUFFERSIZE           IBUFFS            600               ***   
       CACHE_RECS           ICHREC             10               ***   
       CALCLEVEL            ICLLVL           CCSD       [ 10]   ***   
       CCORBOPT             ICCORB             OFF      [  0] x 0.01  
       CC_CONV              ICCCNV          10D- 10             ***   
       CC_EXPORDER          ICCEOR              5               ***   
       CC_EXTRAPOL          ICCEXT             DIIS     [  1]   ***   
       CC_MAXCYC            ICCCYC             50              cycles 
       CC_PROGRAM           ICCPRO         MRCC         [  2]   ***   
       CHARGE               ICHRGE              0               ***   
       CHOLESKY             ICHOLE         OFF          [  0]   ***   
       CIS_CONV             ICISTL              5               ***   
       COMM_SIZE            IPSIZE            ***               ***   
       CONSTANT             ICONST         OLD          [  1]   ***   
       CONTINUUM            ICONTU         NONE         [  0]   ***   
       CONTRACTION          ICNTYP          GENERAL     [  1]   ***   
       COORDINATES          ICOORD         INTERNAL     [  0]   ***   
       CPHF_CONVER          ICPHFT          10D- 16             ***   
       CPHF_MAXCYC          ICPHFC             64              cycles 
       CUBIC                ICUBIC         OFF          [  0]   ***   
       CURVILINEAR          ICURVY            OFF       [  0]   ***   
       DBOC                 IDBOC          OFF          [  0]   ***   
       DCT                  IDCT           OFF          [  0]   ***   
       DERIV_LEV            IDRLVL            SECOND    [  2]   ***   
       DIAG_MRCC            IEOMST          10D-  0             ***   
       DIFF_TYPE            IDIFTY         UNRELAXED    [  1]   ***   
       DIRECT               IDIRCT         OFF          [  0]   ***   
       DROPMO               IDRPMO      NONE         
       ECP                  IECP           OFF          [  0]   ***   
       EIGENVECTOR          IVEC                1               ***   
       EL_ANHARM            IELANH         OFF          [  0]   ***   
       EOMFOLLOW            IEOMSR         ENERGY       [  0]   ***   
       EOM_MRCC             IMRCCE         NEW          [  1]   ***   
       EOM_NONIT            EOMNON         OFF          [  0]   ***   
       EOM_NSING            IEOMSI          10D-  0             ***   
       EOM_NSTATES          IMRCCD         DAVIDSON     [  0]   ***   
       EOM_NTRIP            IEOMTR          10D-  0             ***   
       EOM_ORDER            IEXORD         ENERGY       [  0]   ***   
       ESTATE_CONV          IEXTOL          10D-  5             ***   
       ESTATE_DIAG          IEXDIG         ITERATIVE    [  0]   ***   
       ESTATE_LOCK          IESLOC         ON           [  1]   ***   
       ESTATE_MAXC          IEXMXC             20               ***   
       ESTATE_PROP          IEXPRP         OFF          [  0]   ***   
       EVAL_HESS            IRECAL              0            # of cyc.
       EXCITATION           IEXCIT              0               ***   
       EXCITE               IEXCIT         NONE         [  0]   ***   
       FCGRADNEW            IFCGNW         OFF          [  0]   ***   
       FC_FIELD             IFINFC              0             x 10-6  
       FD_CALTYPE           IFDCAL         GRADONLY     [  0]   ***   
       FD_PROJECT           IFDPRJ         OFF          [  1]   ***   
       FD_STEPSIZE          IDISFD              0            10-4 bohr
       FD_USEGROUP          IFDGRP         FULL         [  0]   ***   
       FILE_RECSIZ          IFLREC              4096           words  
       FINITE_PERT          IFIPER              0             x 10-6  
       FIXGEOM              IFIXGM         OFF          [  0]   ***   
       FOCK                 IFOCK          AO           [  1]   ***   
       FREQ_ALGORI          IVIALG         STANDARD     [  0]   ***   
       FROZEN_CORE          IFROCO         OFF          [  0]   ***   
       FROZEN_VIRT          IFROVI         OFF          [  0]   ***   
       GAMMA_ABCD           IGABCD         STORE        [  0]   ***   
       GAMMA_ABCI           IGABCI         STORE        [  0]   ***   
       GENBAS_1             IGNBS1              0               ***   
       GENBAS_2             IGNBS2              0               ***   
       GENBAS_3             IGNBS3              0               ***   
       GENBAS_4             IGNBS4              0               ***   
       GEO_CONV             ICONTL              5              H/bohr 
       GEO_MAXCYC           IOPTCY             50               ***   
       GEO_MAXSTEP          IMXSTP            300            millibohr
       GEO_METHOD           INR            SINGLE_POINT [  5]   ***   
       GIAO                 IGIAO          OFF          [  1]   ***   
       GIMIC                IGIMIC         OFF          [  0]   ***   
       GRID                 IGRID          OFF          [  0]   ***   
       GRID_ALGO            IGALGO         SERIAL       [  0]   ***   
       GUESS                IGUESS            MOREAD    [  0]   ***   
       HBAR                 IHBAR              OFF      [  0]   ***   
       HESS_TYPE            IHESTP         SCF          [  0]   ***   
       HF2_FILE             IHF2Fl         USE          [  1]   ***   
       HFSTABILITY          ISTABL         OFF          [  0]   ***   
       INCORE               INCORE             OFF      [  0]   ***   
       INPUT_MRCC           IMRCC          ON           [  1]   ***   
       INTEGRALS            INTTYP             VMOL     [  1]   ***   
       JODA_PRINT           IJPRNT              0               ***   
       LINDEP_TOL           ILINDP              8               ***   
       LINEQ_CONV           IZTACN          10D- 10           cycles  
       LINEQ_EXPOR          ILMAXD              5               ***   
       LINEQ_MAXCY          ILMAXC             50               ***   
       LINEQ_TYPE           ILTYPE         DIIS         [  1]   ***   
       LOCK_ORBOCC          ILOCOC             OFF      [  0]   ***   
       MEMORY_SIZE          IMEMSZ         *********           words  
       MEM_UNIT             IMEMU          GB           [  3]   ***   
       MRCC                 IMRCCC         OFF          [  0]   ***   
       MULTIPLICTY          IMULTP              1               ***   
       NEGEVAL              IDIE             ABORT      [  0]   ***   
       NEWNORM              INEWNO         OFF          [  0]   ***   
       NON-HF               INONHF             OFF      [  0]   ***   
       NTOP_TAMP            ITOPT2             15               ***   
       NUC_MODEL            INUCMO         POINT        [  0]   ***   
       OCCUPATION           IOCCU   ESTIMATED BY SCF 
       OPEN-SHELL           IOPEN          SPIN-ORBITAL [  0]   ***   
       ORBITALS             IORBTP           STANDARD   [  0]   ***   
       PARALLEL             IPARAL         ON           [  1]   ***   
       PARA_INT             IPINTS         ON           [  1]   ***   
       PARA_PRINT           IPPRIN              0               ***   
       PERT_ORB             IPTORB         STANDARD     [  0]   ***   
       POINTS               IGRDFD              0               ***   
       PRINT                IPRNT               0               ***   
       PROPS                IPROPS         DYN_POL      [  7]   ***   
       PROP_INTEGR          IINTYP         INTERNAL     [  0]   ***   
       PSI                  IPSI           OFF          [  0]   ***   
       QUARTIC              IQUART         OFF          [  0]   ***   
       RAMAN_INT            IRAMIN         OFF          [  0]   ***   
       RAMAN_ORB            IRAMRE         UNRELAXED    [  0]   ***   
       RDO                  IRDOFM              ON      [  1]   ***   
       REFERENCE            IREFNC             RHF      [  0]   ***   
       RELATIVIST           IRELAT         OFF          [  0]   ***   
       RELAX_DENS           IRDENS              ON      [  1]   ***   
       RESET_FLAGS          IRESET             OFF      [  0]   ***   
       RESTART_CC           ICCRES         OFF          [  0]   ***   
       ROT_EVEC             ROTVEC              0               ***   
       SAVE_INTS            ISVINT             OFF      [  0]   ***   
       SCALE_ON             ISTCRT              0               ***   
       SCF_CONV             ISCFCV          10D- 10             ***   
       SCF_DAMPING          IDAMP               0             x 10-3  
       SCF_EXPORDE          IRPPOR              6               ***   
       SCF_EXPSTAR          IRPPLS              8               ***   
       SCF_EXTRAPO          IRPP                ON      [  1]   ***   
       SCF_MAXCYC           ISCFCY            150              cycles 
       SCF_NOSTOP           ISCFST         OFF          [  0]   ***   
       SCF_PRINT            ISCFPR              0               ***   
       SD_FIELD             IFINSD              0             x 10-6  
       SEQUENCE             ISEQUE         OFF          [  0]   ***   
       SOPERT               IPERSO         OFF          [  0]   ***   
       SPHERICAL            IDFGHI             ON       [  1]   ***   
       SPINORBIT            ISOCAL         OFF          [  0]   ***   
       SPINROTATIO          ISRCON         OFF          [  0]   ***   
       SPIN_FLIP            ISPFLP         OFF          [  0]   ***   
       SPIN_ORBIT           ISPORB         OFF          [  0]   ***   
       SPIN_SCAL            ISCSMP         OFF          [  0]   ***   
       SUBGROUP             ISUBGP         DEFAULT      [  0]   ***   
       SUBGRPAXIS           ISBXYZ         X            [  0]   ***   
       SYMMETRY             ISYM             ON         [  0]   ***   
       SYM_CHECK            ISYMCK         OVERRIDE     [  1]   ***   
       T3_EXTRAPOL          IT3EXT         OFF          [  0]   ***   
       TAMP_SUM             IEVERY              5               ***   
       TESTSUITE            ITESTS         OFF          [  0]   ***   
       THERMOCH             ITHERM         OFF          [  0]   ***   
       TOL_CHOLESK          ITOLCH          10D-  4             ***   
       TRANGRAD             IRESRM         OFF          [  0]   ***   
       TRANS_INV            ITRAIN         USE          [  0]   ***   
       TREAT_PERT           ITREAT         SEQUENTIAL   [  1]   ***   
       UIJ_THRESHO          IUIJTH              1               ***   
       UNITS                IUNITS         ANGSTROM     [  0]   ***   
       UNOS                 IUNOS          OFF          [  0]   ***   
       UPDATE_HESS          IHUPDT         ON           [  1]   ***   
       VIBPHASE             ISETPH         STANDARD     [  0]   ***   
       VIBRATION            IVIB              NO        [  0]   ***   
       VIB_ALGORIT          IGEALG         STANDARD     [  0]   ***   
       VNATORB              IVNORB         OFF          [  0]   ***   
       VTRAN                IVTRAN         FULL/PARTIAL [  0]   ***   
       XFIELD               IXEFLD              0             x 10-6  
       XFORM_TOL            IXFTOL          10D- 11             ***   
       YFIELD               IYEFLD              0             x 10-6  
       ZFIELD               IZEFLD              0             x 10-6  
    -------------------------------------------------------------------
   2 entries found in Z-matrix 
   Job Title : hydrogen_molecule                                                               
   There are  1 unique internal coordinates.
   Of these,  0 will be optimized.
   User supplied Z-matrix: 
--------------------------------------------------------------------------------
       SYMBOL    BOND      LENGTH    ANGLE     ANGLE     DIHED     ANGLE
                  TO      (ANGST)    WRT      (DEG)      WRT      (DEG)
--------------------------------------------------------------------------------
        H    
        H          1         R    
                  *Initial values for internal coordinates* 
                      Name             Value
                        R               1.4100000000
--------------------------------------------------------------------------------
  1  H          1     1.00783
  2  H          1     1.00783
 factor:   60.1997200000000     
   Rotational constants (in cm-1): 
         16.8268639450            16.8268639450
   Rotational constants (in MHz): 
     504456.7609220453        504456.7609220453
********************************************************************************
   The full molecular point group is DXh .
   The largest Abelian subgroup of the full molecular point group is D2h .
   The computational point group is D2h .
********************************************************************************
--------------------------------------------------------------------------------
   Analysis of internal coordinates specified by Z-matrix 
--------------------------------------------------------------------------------
   *The nuclear repulsion energy is    0.375302907801418 a.u.
   *There is   1 degree of freedom within the tot. symm. molecular subspace.
   *Z-matrix requests optimization of   0 coordinates.
   *The optimization is constrained.
   *The following   1 parameters can have non-zero 
    derivatives within the totally symmetric subspace:
             R    [ 1]
   *The following   0 parameters are to be optimized:

   *The following coordinates must be varied in an  unconstrained optimization.
             R    [ 1]
--------------------------------------------------------------------------------
 ----------------------------------------------------------------
 Z-matrix   Atomic            Coordinates (in bohr)
  Symbol    Number           X              Y              Z
 ----------------------------------------------------------------
     H         1        -0.00000000     0.00000000     1.33225720
     H         1         0.00000000     0.00000000    -1.33225720
 ----------------------------------------------------------------
   Interatomic distance matrix (Angstroms) 
 
                 H             H    
                [ 1]        [ 2]
  H    [ 1]     0.00000
  H    [ 2]     1.41000     0.00000
   Rotational constants (in cm-1): 
         16.8268639450             0.0000000000
   Rotational constants (in MHz): 
     504456.7609220453             0.0000000000
  There are   92 basis functions.
  @CHECKOUT-I, Total execution time (CPU/WALL):        0.14/       0.17 seconds.
--executable xjoda finished with status     0 in        0.18 seconds (walltime).
 --invoking executable--
/pool/dattani/cfour_v2.00beta/bin/xvmol
 Serial version of molecule started
********************************************************************************
                    Input from MOL file
********************************************************************************
INTGRL        1    0    1    0    0    0    0    0    0                         
         *** CFOUR Program System (Release V0.1) ***                            
hydrogen_molecule                                                               
    1    3 X  Y   Z   0.10E-08              0    0                              
   9999.00      3.00                                                            
          1.00000000    1    4    1    1    1    1                              
H #1  -0.000000000000000   0.000000000000000   1.332257197070697                
    7    5                                                                      
   82.6400000000000       2.006000000000000E-003  0.000000000000000E+000        
  0.000000000000000E+000  0.000000000000000E+000  0.000000000000000E+000        
   12.4100000000000       1.534300000000000E-002  0.000000000000000E+000        
  0.000000000000000E+000  0.000000000000000E+000  0.000000000000000E+000        
   2.82400000000000       7.557899999999999E-002  0.000000000000000E+000        
  0.000000000000000E+000  0.000000000000000E+000  0.000000000000000E+000        
  0.797700000000000       0.256875000000000        1.00000000000000             
  0.000000000000000E+000  0.000000000000000E+000  0.000000000000000E+000        
  0.258100000000000       0.497368000000000       0.000000000000000E+000        
   1.00000000000000       0.000000000000000E+000  0.000000000000000E+000        
  8.989000000000000E-002  0.296133000000000       0.000000000000000E+000        
  0.000000000000000E+000   1.00000000000000       0.000000000000000E+000        
  2.363000000000000E-002  0.000000000000000E+000  0.000000000000000E+000        
  0.000000000000000E+000  0.000000000000000E+000   1.00000000000000             
    4    4                                                                      
   2.29200000000000        1.00000000000000       0.000000000000000E+000        
  0.000000000000000E+000  0.000000000000000E+000                                
  0.838000000000000       0.000000000000000E+000   1.00000000000000             
  0.000000000000000E+000  0.000000000000000E+000                                
  0.292000000000000       0.000000000000000E+000  0.000000000000000E+000        
   1.00000000000000       0.000000000000000E+000                                
  8.480000000000000E-002  0.000000000000000E+000  0.000000000000000E+000        
  0.000000000000000E+000   1.00000000000000                                     
    3    3                                                                      
   2.06200000000000        1.00000000000000       0.000000000000000E+000        
  0.000000000000000E+000                                                        
  0.662000000000000       0.000000000000000E+000   1.00000000000000             
  0.000000000000000E+000                                                        
  0.190000000000000       0.000000000000000E+000  0.000000000000000E+000        
   1.00000000000000                                                             
    2    2                                                                      
   1.39700000000000        1.00000000000000       0.000000000000000E+000        
  0.360000000000000       0.000000000000000E+000   1.00000000000000             
FINISH                                                                          
 
********************************************************************************
 One- and two-electron integrals over symmetry-adapted AOs are calculated.

  Spherical harmonics are used.
  
  Integrals less than  0.10E-13 are neglected.

  Nuclear repulsion energy :    0.3753029078 a.u.
  required memory for a1 array                5705696  words 
  required memory for a2 array                2321804  words 
 @GETMEM-I,  Allocated      76 MB of main memory.
  @MOLECU-I, One electron integrals (CPU/WALL):        0.02/       0.02 seconds.
  @TWOEL-I,      28693 integrals of symmetry type  I I I I
  @TWOEL-I,     246643 integrals of symmetry type  I J I J
  @TWOEL-I,     146079 integrals of symmetry type  I I J J
  @TWOEL-I,     547099 integrals of symmetry type  I J K L
  @TWOEL-I, Total number of 2-e integrals     968514.
  @MOLECU-I, Two electron integrals (CPU/WALL):        0.40/       0.48 seconds.
  @CHECKOUT-I, Total execution time (CPU/WALL):        0.43/       0.51 seconds.
--executable xvmol finished with status     0 in        0.72 seconds (walltime).
 --invoking executable--
/pool/dattani/cfour_v2.00beta/bin/xvmol2ja
 @GETMEM-I,  Allocated   13351 MB of main memory.
  @CHECKOUT-I, Total execution time (CPU/WALL):        0.00/       0.01 seconds.
--executable xvmol2ja finished with status     0 in        0.21 seconds (walltime).
 --invoking executable--
/pool/dattani/cfour_v2.00beta/bin/xvscf
  There are   92 functions in the AO basis.

  There are 8 irreducible representations.

       Irrep        # of functions
         1                 19
         2                 11
         3                 11
         4                  5
         5                 19
         6                 11
         7                 11
         8                  5


  Parameters for SCF calculation: 
        SCF reference function:  RHF  
  Maximum number of iterations:  150
     Full symmetry point group: DXh 
     Computational point group: D2h 
        Initial density matrix: MOREAD                 
     SCF convergence tolerance: 10**(-10)
  DIIS convergence acceleration:  ON
          Latest start for DIIS:   8
                     DIIS order:   6

  Memory information:     419746 words required.
  Fock matrices are constructed from AO integral file.
 @GETMEM-I,  Allocated       3 MB of main memory.
  Initialization and symmetry analysis required      0.001 seconds.

  @INITGES-I, Occupancies from core Hamiltonian:

          Alpha population by irrep:   1    0    0    0    0    0    0    0
           Beta population by irrep:   1    0    0    0    0    0    0    0


 total no. of electrons in initial guess :  0.000000000000000E+000
  --------------------------------------------------------------------
  Iteration         Total Energy            Largest Density Difference
  --------------------------------------------------------------------
       0             0.375302907801419              0.0000000000D+00
   current occupation vector 
     1  0  0  0  0  0  0  0
     1  0  0  0  0  0  0  0
       1            -0.983639167927579              0.1017469602D+01
   current occupation vector 
     1  0  0  0  0  0  0  0
     1  0  0  0  0  0  0  0
       2            -1.019948506675720              0.2066621788D+00
   current occupation vector 
     1  0  0  0  0  0  0  0
     1  0  0  0  0  0  0  0
       3            -1.021750383026981              0.3934570340D-01
   current occupation vector 
     1  0  0  0  0  0  0  0
     1  0  0  0  0  0  0  0
       4            -1.021772198228531              0.5048818724D-02
   current occupation vector 
     1  0  0  0  0  0  0  0
     1  0  0  0  0  0  0  0
       5            -1.021772413131852              0.3839171684D-03
   current occupation vector 
     1  0  0  0  0  0  0  0
     1  0  0  0  0  0  0  0
       6            -1.021772414624074              0.5279957665D-04
   current occupation vector 
     1  0  0  0  0  0  0  0
     1  0  0  0  0  0  0  0
       7            -1.021772414632655              0.3290687776D-05
   current occupation vector 
     1  0  0  0  0  0  0  0
     1  0  0  0  0  0  0  0
       8            -1.021772414632709              0.3090921498D-06
   current occupation vector 
     1  0  0  0  0  0  0  0
     1  0  0  0  0  0  0  0
       9            -1.021772414632705              0.4015708159D-07
   current occupation vector 
     1  0  0  0  0  0  0  0
     1  0  0  0  0  0  0  0
      10            -1.021772414632711              0.3400773593D-08
   current occupation vector 
     1  0  0  0  0  0  0  0
     1  0  0  0  0  0  0  0
      11            -1.021772414632706              0.1330772992D-09
   current occupation vector 
     1  0  0  0  0  0  0  0
     1  0  0  0  0  0  0  0

  SCF has converged.

 Density matrix saved to file den.dat
 total electron number:   1.99999999999999     
     E(SCF)=        -1.021772414632705              0.1946398598D-10

  Eigenvector printing suppressed.

 @PUTMOS-I, Writing converged MOs to NEWMOS. 
 @PUTMOS-I, Symmetry   1 Full Blocks  4 Partial Blocksize   3
 @PUTMOS-I, Symmetry   2 Full Blocks  2 Partial Blocksize   3
 @PUTMOS-I, Symmetry   3 Full Blocks  2 Partial Blocksize   3
 @PUTMOS-I, Symmetry   4 Full Blocks  1 Partial Blocksize   1
 @PUTMOS-I, Symmetry   5 Full Blocks  4 Partial Blocksize   3
 @PUTMOS-I, Symmetry   6 Full Blocks  2 Partial Blocksize   3
 @PUTMOS-I, Symmetry   7 Full Blocks  2 Partial Blocksize   3
 @PUTMOS-I, Symmetry   8 Full Blocks  1 Partial Blocksize   1


 
  ORBITAL EIGENVALUES (ALPHA)  (1H = 27.2113838 eV)

       MO #        E(hartree)               E(eV)           FULLSYM    COMPSYM
       ----   --------------------   --------------------   -------   ---------
    1     1          -0.4530186520         -12.3272644158    SGg+        Ag (1)
  +++++++++++++++++++++++++++++++++++++++++++++++++++++++++++++++++++++++++++++
    2    47           0.0219886142           0.5983406219    SGu+       B1u (5)
    3     2           0.0527063569           1.4342129081    SGg+        Ag (1)
    4    48           0.0885106587           2.4084975059    SGu+       B1u (5)
    5    20           0.1615069615           4.3948279196    PIu        B2u (2)
    6    31           0.1615069615           4.3948279196    PIu        B3u (3)
    7     3           0.2321399241           6.3168485751    SGg+        Ag (1)
    8    66           0.2365966501           6.4381222566    PIg        B3g (6)
    9    77           0.2365966501           6.4381222566    PIg        B2g (7)
   10    49           0.2750942671           7.4856956891    SGu+       B1u (5)
   11     4           0.3689235545          10.0389204421    SGg+        Ag (1)
   12    50           0.5274137303          14.3516574481    SGu+       B1u (5)
   13    42           0.5761658008          15.6782687506    DEg        B1g (4)
   14     5           0.5761658008          15.6782687506    DEg         Ag (1)
   15    67           0.6576207298          17.8947700876    PIg        B3g (6)
   16    78           0.6576207298          17.8947700876    PIg        B2g (7)
   17     6           0.6593420175          17.9416087057    SGg+        Ag (1)
   18    32           0.6665709226          18.1383172169    PIu        B3u (3)
   19    21           0.6665709226          18.1383172169    PIu        B2u (2)
   20    51           0.7456582493          20.2903928205    DEu        B1u (5)
   21    88           0.7456582493          20.2903928205    DEu         Au (8)
   22    52           0.7468431294          20.3226350473    SGu+       B1u (5)
   23    33           0.7734366032          21.0462802710    PIu        B3u (3)
   24    22           0.7734366032          21.0462802710    PIu        B2u (2)
   25     7           1.0294536469          28.0128583106    SGg+        Ag (1)
   26    68           1.1569451472          31.4820784597    PIg        B3g (6)
   27    79           1.1569451472          31.4820784597    PIg        B2g (7)
   28    53           1.4123004032          38.4306483408    SGu+       B1u (5)
   29     8           1.4461807915          39.3525805895    SGg+        Ag (1)
   30    23           1.4729898119          40.0820911353    PHu        B2u (2)
   31    34           1.4729898119          40.0820911353    PHu        B3u (3)
   32    43           1.6394194069          44.6108707237    DEg        B1g (4)
   33     9           1.6394194069          44.6108707237    DEg         Ag (1)
   34    69           1.7416596846          47.3929701595    PHg        B3g (6)
   35    80           1.7416596846          47.3929701595    PHg        B2g (7)
   36    81           1.7579888142          47.8373083734    PIg        B2g (7)
   37    70           1.7579888142          47.8373083734    PIg        B3g (6)
   38    54           1.7988435877          48.9490232967    SGu+       B1u (5)
   39    10           1.9477989077          53.0023036799    SGg+        Ag (1)
   40    24           1.9920543901          54.2065565996    PIu        B2u (2)
   41    35           1.9920543901          54.2065565996    PIu        B3u (3)
   42    55           2.0182525057          54.9194435776    DEu        B1u (5)
   43    89           2.0182525057          54.9194435776    DEu         Au (8)
   44    56           2.1305900029          57.9763023319    SGu+       B1u (5)
   45    36           2.3819953434          64.8173895450    PIu        B3u (3)
   46    25           2.3819953434          64.8173895450    PIu        B2u (2)
   47    44           2.4060314342          65.4714448371    DEg        B1g (4)
   48    11           2.4060314342          65.4714448371    DEg         Ag (1)
   49    12           2.4807220135          67.5038788600    SGg+        Ag (1)
   50    26           2.6674664919          72.5854545368    PIu        B2u (2)
   51    37           2.6674664919          72.5854545368    PIu        B3u (3)
   52    90           2.6703525756          72.6639888674    DEu         Au (8)
   53    57           2.6703525756          72.6639888674    DEu        B1u (5)
   54    82           2.8663776974          77.9981036956    PIg        B2g (7)
   55    71           2.8663776974          77.9981036956    PIg        B3g (6)
   56    58           3.0515044241          83.0356581101    SGu+       B1u (5)
   57    13           3.5437196775          96.4295162924    SGg+        Ag (1)
   58    83           3.6152550645          98.3760931653    PIg        B2g (7)
   59    72           3.6152550645          98.3760931653    PIg        B3g (6)
   60    59           4.3041378690         117.1215475671    SGu+       B1u (5)
   61    27           6.1834233483         168.2595060504    PIu        B2u (2)
   62    38           6.1834233483         168.2595060504    PIu        B3u (3)
   63    14           6.2765800891         170.7944298790    SGg+        Ag (1)
   64    45           6.4217744958         174.7453706078    DEg        B1g (4)
   65    15           6.4217744958         174.7453706078    DEg         Ag (1)
   66    39           6.5246754792         177.5454487616    PHu        B3u (3)
   67    28           6.5246754792         177.5454487616    PHu        B2u (2)
   68    73           6.6163898568         180.0411238936    PHg        B3g (6)
   69    84           6.6163898568         180.0411238936    PHg        B2g (7)
   70    91           6.8781343398         187.1635534828    DEu         Au (8)
   71    60           6.8781343398         187.1635534828    DEu        B1u (5)
   72    74           7.3601403916         200.2796051624    PIg        B3g (6)
   73    85           7.3601403916         200.2796051624    PIg        B2g (7)
   74    61           7.4117271838         201.6833531650    SGu+       B1u (5)
   75    16           7.6376868807         207.8320292043    SGg+        Ag (1)
   76    62           7.6504111984         208.1782754973    SGu+       B1u (5)
   77    29           7.9219214322         215.5664446811    PIu        B2u (2)
   78    40           7.9219214322         215.5664446811    PIu        B3u (3)
   79    17           8.3638867979         227.5929338825    DEg         Ag (1)
   80    46           8.3638867979         227.5929338825    DEg        B1g (4)
   81    75           8.3746109843         227.8847538337    PIg        B3g (6)
   82    86           8.3746109843         227.8847538337    PIg        B2g (7)
   83    18           8.3768082888         227.9445455283    SGg+        Ag (1)
   84    92           8.4851123174         230.8916480207    DEu         Au (8)
   85    63           8.4851123174         230.8916480207    DEu        B1u (5)
   86    30           8.5317679140         232.1612113668    PIu        B2u (2)
   87    41           8.5317679140         232.1612113668    PIu        B3u (3)
   88    76           9.0721681051         246.8662483839    PIg        B3g (6)
   89    87           9.0721681051         246.8662483839    PIg        B2g (7)
   90    64           9.1310141713         248.4675312783    SGu+       B1u (5)
   91    19           9.5467564548         259.7804541236    SGg+        Ag (1)
   92    65          10.4030991217         283.0827231148    SGu+       B1u (5)


  VSCF finished.

  @CHECKOUT-I, Total execution time (CPU/WALL):        0.10/       0.11 seconds.
--executable xvscf finished with status     0 in        0.14 seconds (walltime).
 --invoking executable--
/pool/dattani/cfour_v2.00beta/bin/xvtran
 @GETMEM-I,  Allocated   13351 MB of main memory.
  Full RHF integral transformation
  Transformation of IIII integrals :
  1 pass through the AO integral file was required.
       28693 AO integrals were read.
       44043 MO integrals were written to HF2.
  Transformation of IIJJ integrals :
  1 pass through the AO integral file was required.
      146079 AO integrals were read.
      179244 MO integrals were written to HF2.
  Transformation of IJIJ integrals :
  1 pass through the AO integral file was required.
      246643 AO integrals were read.
      302685 MO integrals were written to HF2.
  Transformation of IJKL integrals :
  1 pass through the AO integral file was required.
      547099 AO integrals were read.
      605279 MO integrals were written to HF2.
  Summary of active molecular orbitals: 
------------------------------------------------------------------------
 
  Index      Eigenvalue    Symmetry    Index      Eigenvalue    Symmetry
------------------------------------------------------------------------
     1        -0.4530187        1        47         0.0219886        5
     2         0.0527064        1        48         0.0885107        5
     3         0.2321399        1        49         0.2750943        5
     4         0.3689236        1        50         0.5274137        5
     5         0.5761658        1        51         0.7456582        5
     6         0.6593420        1        52         0.7468431        5
     7         1.0294536        1        53         1.4123004        5
     8         1.4461808        1        54         1.7988436        5
     9         1.6394194        1        55         2.0182525        5
    10         1.9477989        1        56         2.1305900        5
    11         2.4060314        1        57         2.6703526        5
    12         2.4807220        1        58         3.0515044        5
    13         3.5437197        1        59         4.3041379        5
    14         6.2765801        1        60         6.8781343        5
    15         6.4217745        1        61         7.4117272        5
    16         7.6376869        1        62         7.6504112        5
    17         8.3638868        1        63         8.4851123        5
    18         8.3768083        1        64         9.1310142        5
    19         9.5467565        1        65        10.4030991        5
    20         0.1615070        2        66         0.2365967        6
    21         0.6665709        2        67         0.6576207        6
    22         0.7734366        2        68         1.1569451        6
    23         1.4729898        2        69         1.7416597        6
    24         1.9920544        2        70         1.7579888        6
    25         2.3819953        2        71         2.8663777        6
    26         2.6674665        2        72         3.6152551        6
    27         6.1834233        2        73         6.6163899        6
    28         6.5246755        2        74         7.3601404        6
    29         7.9219214        2        75         8.3746110        6
    30         8.5317679        2        76         9.0721681        6
    31         0.1615070        3        77         0.2365967        7
    32         0.6665709        3        78         0.6576207        7
    33         0.7734366        3        79         1.1569451        7
    34         1.4729898        3        80         1.7416597        7
    35         1.9920544        3        81         1.7579888        7
    36         2.3819953        3        82         2.8663777        7
    37         2.6674665        3        83         3.6152551        7
    38         6.1834233        3        84         6.6163899        7
    39         6.5246755        3        85         7.3601404        7
    40         7.9219214        3        86         8.3746110        7
    41         8.5317679        3        87         9.0721681        7
    42         0.5761658        4        88         0.7456582        8
    43         1.6394194        4        89         2.0182525        8
    44         2.4060314        4        90         2.6703526        8
    45         6.4217745        4        91         6.8781343        8
    46         8.3638868        4        92         8.4851123        8
------------------------------------------------------------------------
  @CHECKOUT-I, Total execution time (CPU/WALL):        0.12/       0.18 seconds.
--executable xvtran finished with status     0 in        0.20 seconds (walltime).
 --invoking executable--
/pool/dattani/cfour_v2.00beta/bin/xintprc
 @GETMEM-I,  Allocated   13351 MB of main memory.
  Processing integrals for CCSD calculation.
  @GMOIAA-I, Processing MO integrals for spin case AA.
  @GMOIAA-I, Generation of integral list completed.
                      TYPE                NUMBER
                      ----               --------
                      PPPP               1081939
                      PPPH                 48036
                      PPHH                   606
                      PHPH                   651
                      PHHH                    18
                      HHHH                     1

                     TOTAL               1131251

  @FORMT2-I, Second-order MP correlation energies:
            ------------------------------------------------
            E(SCF)                  =     -1.021772414633 a.u.
            E2(AA)                  =      0.000000000000 a.u.
            E2(AB)                  =     -0.040012795462 a.u.
            E2(TOT)                 =     -0.040012795462 a.u.
            Total MP2 energy        =     -1.061785210095 a.u.
            ------------------------------------------------
   Largest T2 amplitudes for spin case AB:
       _       _                 _       _                 _       _
   i   j   a   b             i   j   a   b             i   j   a   b
-----------------------------------------------------------------------------
[  1   1  47  47]-0.05659 [  1   1  48  47]-0.05118 [  1   1  47  48]-0.05118
[  1   1  48  48]-0.04712 [  1   1  49  47]-0.02885 [  1   1  47  49]-0.02885
[  1   1  49  48]-0.02767 [  1   1  48  49]-0.02767 [  1   1  50  47]-0.02448
[  1   1  47  50]-0.02448 [  1   1  50  48]-0.02432 [  1   1  48  50]-0.02432
[  1   1   4   4]-0.02109 [  1   1  32  32]-0.02005 [  1   1  21  21]-0.02005
-----------------------------------------------------------------------------
   Norm of T2AB vector (     1219 symmetry allowed elements):  0.1572869136.
-----------------------------------------------------------------------------
  @CHECKOUT-I, Total execution time (CPU/WALL):        0.24/       0.27 seconds.
--executable xintprc finished with status     0 in        0.46 seconds (walltime).
 --invoking executable--
/pool/dattani/cfour_v2.00beta/bin/xint
 @GETMEM-I,  Allocated   13351 MB of main memory.
  itot is                      0
 using new mrcc fort.57
 fort.56
     2     1     0     0     1     3     0     1     0     1     1     1     0     0     0    10     0     0           0.08560     0 13351     0     0
ex.lev,nsing,ntrip, rest,CC/CI, dens,conver, symm, diag,  CS ,spatial,  HF ,ndoub,nacto,nactv, tol ,maxex, sacc, freq, dboc, mem
  @CHECKOUT-I, Total execution time (CPU/WALL):        5.14/       5.28 seconds.
--executable xint finished with status     0 in        5.34 seconds (walltime).
 --invoking executable--
/pool/dattani/MRCC/dmrcc
 **********************************************************************
                          MRCC program system
 **********************************************************************
 
                              Written by
    Mihaly Kallay, Zoltan Rolik, Jozsef Csontos, Istvan Ladjanszki,
       Lorant Szegedy, Bence Ladoczki, Gyula Samu, Klara Petrov,
        Mate Farkas, Peter Nagy, David Mester, and Bence Hegely
 
        Department of Physical Chemistry and Materials Science
            Budapest University of Technology and Economics
                  Budapest P.O.Box 91, H-1521 Hungary
 
                              www.mrcc.hu

 ************************ 2020-07-27 05:18:30 *************************
 Executing goldstone...

 Generation of CC equations in terms of H and T...
 Generation of antisymmetrized Goldstone diagrams...
 Number of diagrams in T^1 equations:    14
 Number of diagrams in T^2 equations:    31
 Translation of diagrams to factorized equations...
 Optimizing intermediate calculation...
 Optimizing right-hand EOMCC calculation...
 Optimizing left-hand EOMCC calculation...
 Optimizing density-matrix calculation...
 Optimizing perturbed lambda equations...
 Optimizing perturbed density calculation...
 Number of floating-point operations per iteration step:   1.1834E+07
 Probable CPU time per iteration step (hours):      0.00
 Required memory (Mbytes):    8917.8
 Number of intermediates:                                 227
 Number of intermediates to be stored:                     82
 Length of intermediate file (Mbytes):     144.3

 ************************ 2020-07-27 05:18:30 *************************
 Executing xmrcc...

 **********************************************************************
 CC(                     2 ) calculation 
 
 
 Allocation of6675.5 Mbytes of memory...
 Number of spinorbitals:                   184
 Number of alpha electrons:                        1
 Number of beta electrons:                         1
 Spin multiplicity:                     1
 z-component of spin:  0.0
 Spatial symmetry:                      1
 Convergence criterion:  1.0E-10
 Construction of occupation graphs...
 Number of                     0 -fold excitations:                      1
 Number of                     1 -fold excitations:                     36
 Number of                     2 -fold excitations:                   1219
 Total number of configurations:                   1256
 Calculation of coupling coefficients...
 Length of intermediate file (Mbytes):     107.2
 
 ======================================================================
 
 ======================================================================
 
 
 
 Memory requirements /Mbyte/: 
               Minimal        Optimal
 Real*8:         96.6666       575.9545
 Integer:         6.6361
 Total:         103.3027       582.5906
 

 ************************ 2020-07-27 05:18:32 *************************
 Executing mrcc...

 **********************************************************************
 CCSD analytic second derivative calculation                            
 
 
 OpenMP parallel version is running.
 Number of CPUs:  40
 Allocation of  576.0 Mbytes of memory...
 Number of spinorbitals: 184
 Number of alpha electrons:  1
 Number of beta  electrons:  1
 Spin multiplicity: 1
 z-component of spin:  0.0
 Spatial symmetry: 1
 Convergence criterion:  1.0E-10
 Construction of occupation graphs...
 Number of 0-fold excitations: 1
 Number of 1-fold excitations: 36
 Number of 2-fold excitations: 1219
 Total number of determinants: 1256
 Calculation of coupling coefficients...
 Initial cluster amplitudes are generated.
 Length of intermediate file (Mbytes):     107.2
 Reading integral list from unit 55...
 Sorting integrals...
 Energy of reference determinant [au]:      -1.021772414633
 Calculation of diagonal elements of Hamiltonian...
 Calculation of MP denominators...
 
 Starting CC iteration...
 ======================================================================
 Norm of residual vector:     0.31843729
 CPU time [min]:     1.414                   Wall time [min]:     0.235
 
 Iteration  1  CC energy:    -1.06178521  Energy decrease:   0.04001280
 ======================================================================
 Norm of residual vector:     0.10466233
 CPU time [min]:     2.169                   Wall time [min]:     0.281
 
 Iteration  2  CC energy:    -1.07292497  Energy decrease:   0.01113976
 ======================================================================
 Norm of residual vector:     0.03604018
 CPU time [min]:     3.097                   Wall time [min]:     0.329
 
 Iteration  3  CC energy:    -1.08035896  Energy decrease:   0.00743399
 ======================================================================
 Norm of residual vector:     0.00907459
 CPU time [min]:     4.016                   Wall time [min]:     0.376
 
 Iteration  4  CC energy:    -1.08022944  Energy decrease:   0.00012951
 ======================================================================
 Norm of residual vector:     0.00159461
 CPU time [min]:     4.866                   Wall time [min]:     0.424
 
 Iteration  5  CC energy:    -1.08040252  Energy decrease:   0.00017307
 ======================================================================
 Norm of residual vector:     0.00030120
 CPU time [min]:     5.698                   Wall time [min]:     0.477
 
 Iteration  6  CC energy:    -1.08037970  Energy decrease:   0.00002282
 ======================================================================
 Norm of residual vector:     0.00004374
 CPU time [min]:     6.388                   Wall time [min]:     0.520
 
 Iteration  7  CC energy:    -1.08037741  Energy decrease:   0.00000228
 ======================================================================
 Norm of residual vector:     0.00000772
 CPU time [min]:     7.149                   Wall time [min]:     0.566
 
 Iteration  8  CC energy:    -1.08037811  Energy decrease:   0.00000070
 ======================================================================
 Norm of residual vector:     0.00000159
 CPU time [min]:     7.894                   Wall time [min]:     0.610
 
 Iteration  9  CC energy:    -1.08037800  Energy decrease:   0.00000011
 ======================================================================
 Norm of residual vector:     0.00000030
 CPU time [min]:     8.618                   Wall time [min]:     0.656
 
 Iteration 10  CC energy:    -1.08037801  Energy decrease:   0.00000001
 ======================================================================
 Norm of residual vector:     0.00000005
 CPU time [min]:     9.324                   Wall time [min]:     0.703
 
 Iteration 11  CC energy:    -1.08037801  Energy decrease:   3.4372E-09
 ======================================================================
 Norm of residual vector:     0.00000001
 CPU time [min]:    10.314                   Wall time [min]:     0.756
 
 Iteration 12  CC energy:    -1.08037801  Energy decrease:   1.0506E-09
 ======================================================================
 Norm of residual vector:     1.6199E-09
 CPU time [min]:    11.190                   Wall time [min]:     0.810
 
 Iteration 13  CC energy:    -1.08037801  Energy decrease:   8.3447E-11
 ======================================================================
 Norm of residual vector:     2.9315E-10
 CPU time [min]:    11.900                   Wall time [min]:     0.854
 
 Iteration 14  CC energy:    -1.08037801  Energy decrease:   2.4915E-11
 ======================================================================
 Norm of residual vector:     4.9053E-11
 CPU time [min]:    12.778                   Wall time [min]:     0.900
 
 Iteration 15  CC energy:    -1.08037801  Energy decrease:   2.4851E-12
 ======================================================================
 
 Iteration has converged in 15 steps.
 
 Final results:
 Total CCSD energy [au]:              -1.080378012657
 Total MP2 energy [au]:               -1.061785210095
 
 
 
 Starting left-hand LR-CC iteration for root                      1 ...
 ======================================================================
 Norm of residual vector:     0.31845311
 CPU time [min]:    13.597                   Wall time [min]:     0.934
 
 Iteration  1  CI energy:    -1.08037801  Energy decrease:   0.0000E+00
 ======================================================================
 Norm of residual vector:     0.13633246
 CPU time [min]:    14.365                   Wall time [min]:     0.972
 
 Iteration  2  CI energy:    -1.08037801  Energy decrease:   0.0000E+00
 ======================================================================
 Norm of residual vector:     0.03361076
 CPU time [min]:    15.109                   Wall time [min]:     1.006
 
 Iteration  3  CI energy:    -1.08037801  Energy decrease:   0.0000E+00
 ======================================================================
 Norm of residual vector:     0.00627376
 CPU time [min]:    15.941                   Wall time [min]:     1.046
 
 Iteration  4  CI energy:    -1.08037801  Energy decrease:   0.0000E+00
 ======================================================================
 Norm of residual vector:     0.00114284
 CPU time [min]:    16.650                   Wall time [min]:     1.079
 
 Iteration  5  CI energy:    -1.08037801  Energy decrease:   0.0000E+00
 ======================================================================
 Norm of residual vector:     0.00014605
 CPU time [min]:    17.352                   Wall time [min]:     1.113
 
 Iteration  6  CI energy:    -1.08037801  Energy decrease:   0.0000E+00
 ======================================================================
 Norm of residual vector:     0.00002233
 CPU time [min]:    18.155                   Wall time [min]:     1.148
 
 Iteration  7  CI energy:    -1.08037801  Energy decrease:   0.0000E+00
 ======================================================================
 Norm of residual vector:     0.00000380
 CPU time [min]:    18.900                   Wall time [min]:     1.182
 
 Iteration  8  CI energy:    -1.08037801  Energy decrease:   0.0000E+00
 ======================================================================
 Norm of residual vector:     0.00000079
 CPU time [min]:    19.706                   Wall time [min]:     1.222
 
 Iteration  9  CI energy:    -1.08037801  Energy decrease:   0.0000E+00
 ======================================================================
 Norm of residual vector:     0.00000018
 CPU time [min]:    20.477                   Wall time [min]:     1.257
 
 Iteration 10  CI energy:    -1.08037801  Energy decrease:   0.0000E+00
 ======================================================================
 Norm of residual vector:     0.00000004
 CPU time [min]:    21.216                   Wall time [min]:     1.293
 
 Iteration 11  CI energy:    -1.08037801  Energy decrease:   0.0000E+00
 ======================================================================
 Norm of residual vector:     0.00000001
 CPU time [min]:    21.947                   Wall time [min]:     1.328
 
 Iteration 12  CI energy:    -1.08037801  Energy decrease:   0.0000E+00
 ======================================================================
 Norm of residual vector:     1.5222E-09
 CPU time [min]:    22.646                   Wall time [min]:     1.363
 
 Iteration 13  CI energy:    -1.08037801  Energy decrease:   0.0000E+00
 ======================================================================
 Norm of residual vector:     1.6302E-10
 CPU time [min]:    23.473                   Wall time [min]:     1.403
 
 Iteration 14  CI energy:    -1.08037801  Energy decrease:   0.0000E+00
 ======================================================================
 Norm of residual vector:     2.3901E-11
 CPU time [min]:    24.233                   Wall time [min]:     1.437
 
 Iteration 15  CI energy:    -1.08037801  Energy decrease:   0.0000E+00
 ======================================================================
 
 Iteration has converged in 15 steps.
 
 Final results:
 Total CCSD energy [au]:              -1.080378012657
 
 
 
 Calculating reduced density-matrix for root 1...
 
 Total energy from RDM [au]:          -0.928161992154
 
 ************************ 2020-07-27 05:19:59 *************************
                      Normal termination of mrcc.
 **********************************************************************
--executable dmrcc finished with status     0 in       89.16 seconds (walltime).
 --invoking executable--
/pool/dattani/cfour_v2.00beta/bin/xdens
 @GETMEM-I,  Allocated   13351 MB of main memory.
  CCSD density and intermediates are calculated.
  Unrelaxed density is calculated
  ----------------------------------------------------------------------
                 Natural orbital occupation numbers
  ----------------------------------------------------------------------
  1.85858  0.12932  0.00382  0.00353  0.00353  0.00030  0.00017  0.00015
  0.00015  0.00006  0.00006  0.00005  0.00005  0.00005  0.00002  0.00002
  0.00002  0.00001  0.00001  0.00001  0.00001  0.00001  0.00001  0.00000
  0.00000  0.00000  0.00000  0.00000  0.00000  0.00000  0.00000  0.00000
  0.00000  0.00000  0.00000  0.00000  0.00000  0.00000  0.00000  0.00000
  0.00000  0.00000  0.00000  0.00000  0.00000  0.00000  0.00000  0.00000
  0.00000  0.00000  0.00000  0.00000  0.00000  0.00000  0.00000  0.00000
  0.00000  0.00000  0.00000  0.00000  0.00000  0.00000  0.00000  0.00000
  0.00000  0.00000  0.00000  0.00000  0.00000  0.00000  0.00000  0.00000
  0.00000  0.00000  0.00000  0.00000  0.00000  0.00000  0.00000  0.00000
  0.00000  0.00000  0.00000  0.00000  0.00000  0.00000  0.00000  0.00000
  0.00000  0.00000  0.00000  0.00000
  Trace of density matrix :   2.0000000000.
  ----------------------------------------------------------------------
  Density calculation successfully completed.
  @CHECKOUT-I, Total execution time (CPU/WALL):        0.01/       0.01 seconds.
--executable xdens finished with status     0 in        0.21 seconds (walltime).
 --invoking executable--
/pool/dattani/cfour_v2.00beta/bin/xvdint
 @GETMEM-I,  Allocated   13351 MB of main memory.
 One- and two-electron integral derivatives are calculated
 for RHF-CC/MBPT hessians and dipole derivatives.
 Spherical gaussians are used.
  Evaluation of 1e integral derivatives required    0.04 seconds.
  SEQUENTIAL TREATMENT FOR ELECTRICAL PROPERTIES
  @CHECKOUT-I, Total execution time (CPU/WALL):        0.04/       0.04 seconds.
--executable xvdint finished with status     0 in        0.54 seconds (walltime).
 --invoking executable--
/pool/dattani/cfour_v2.00beta/bin/xcphf
 @GETMEM-I,  Allocated   13351 MB of main memory.
  irreducible representation Nr.                      1
  # geometric perturbations                      1
  irreducible representation Nr.                      2
  # geometric perturbations                      0
  irreducible representation Nr.                      3
  # geometric perturbations                      0
  irreducible representation Nr.                      4
  # geometric perturbations                      0
  irreducible representation Nr.                      5
  # geometric perturbations                      0
  irreducible representation Nr.                      6
  # geometric perturbations                      0
  irreducible representation Nr.                      7
  # geometric perturbations                      0
  irreducible representation Nr.                      8
  # geometric perturbations                      0
  efields on                     1
  efields on                     1
  efields on                     1
  @CHECKOUT-I, Total execution time (CPU/WALL):        0.00/       0.00 seconds.
--executable xcphf finished with status     0 in        0.03 seconds (walltime).
 --invoking executable--
/pool/dattani/cfour_v2.00beta/bin/xsdcc
 @GETMEM-I,  Allocated   13351 MB of main memory.
 Frequency-dependent polarizabilities are calculated at the CCSD level.
 Polarizabilities are calculated at the following frequency:
 Nr.    a.u.          nm        cm**-1
  1 0.0856000      532.282     18787.03
 Unrelaxed derivatives are calculated
 External CC code used, step:                      1
 Ex is a perturbation of irrep 2.
                     1                     2
 ABSPERT                      2                     1                     0
                     0 EW
 Perturbed integrals stored on unit 55 for use within external CC programs.
                     1                     0 F                     1
                     2
  @CHECKOUT-I, Total execution time (CPU/WALL):        3.86/       3.94 seconds.
--executable xsdcc finished with status     0 in        4.24 seconds (walltime).
 --invoking executable--
/pool/dattani/MRCC/dmrcc
 **********************************************************************
                          MRCC program system
 **********************************************************************
 
                              Written by
    Mihaly Kallay, Zoltan Rolik, Jozsef Csontos, Istvan Ladjanszki,
       Lorant Szegedy, Bence Ladoczki, Gyula Samu, Klara Petrov,
        Mate Farkas, Peter Nagy, David Mester, and Bence Hegely
 
        Department of Physical Chemistry and Materials Science
            Budapest University of Technology and Economics
                  Budapest P.O.Box 91, H-1521 Hungary
 
                              www.mrcc.hu

 ************************ 2020-07-27 05:20:05 *************************
 Executing goldstone...

 Generation of CC equations in terms of H and T...
 Generation of antisymmetrized Goldstone diagrams...
 Number of diagrams in T^1 equations:    14
 Number of diagrams in T^2 equations:    31
 Translation of diagrams to factorized equations...
 Optimizing intermediate calculation...
 Optimizing right-hand EOMCC calculation...
 Optimizing left-hand EOMCC calculation...
 Optimizing density-matrix calculation...
 Optimizing perturbed lambda equations...
 Optimizing perturbed density calculation...
 Number of floating-point operations per iteration step:   1.1834E+07
 Probable CPU time per iteration step (hours):      0.00
 Required memory (Mbytes):    8917.8
 Number of intermediates:                                 227
 Number of intermediates to be stored:                     82
 Length of intermediate file (Mbytes):     144.3

 ************************ 2020-07-27 05:20:05 *************************
 Executing xmrcc...

 **********************************************************************
 CC(                     2 ) calculation 
 
 
 Allocation of6675.5 Mbytes of memory...
 Number of spinorbitals:                   184
 Number of alpha electrons:                        1
 Number of beta electrons:                         1
 Spin multiplicity:                     1
 z-component of spin:  0.0
 Spatial symmetry:                      1
 Convergence criterion:  1.0E-10
 Symmetry of perturbation:                      2
 Construction of occupation graphs...
 Number of perturbed amplitudes: 
 Number of                     0 -fold excitations:                      0
 Number of                     1 -fold excitations:                     22
 Number of                     2 -fold excitations:                   1034
 Total number of configurations:                   1056
 Number of ground state excitations: 
 Number of                     0 -fold excitations:                      1
 Number of                     1 -fold excitations:                     36
 Number of                     2 -fold excitations:                   1219
 Total number of configurations:                   1256
 Calculation of coupling coefficients...
 Length of intermediate file (Mbytes):     210.9
 
 Calculation of the <K|exp(-T) dH/dx exp(T)|0> term...
 
 Calculation of the <0|(1+L) exp(-T) dH/dx exp(T)|K> term...
 
 ======================================================================
 
 Calculation of the <0|(1+L)[exp(-T) H exp(T), dT/dx]|K> term...
 
 Calculation of the <0|(1+L)[exp(-T){p+q-}exp(T), dT/dx]|0> term...
 
 ======================================================================
 
 
 
 Memory requirements /Mbyte/: 
               Minimal        Optimal
 Real*8:         94.1492       573.5015
 Integer:         6.6363
 Total:         100.7855       580.1378
 

 ************************ 2020-07-27 05:20:06 *************************
 Executing mrcc...

 **********************************************************************
 CCSD analytic second derivative calculation                            
 
 
 OpenMP parallel version is running.
 Number of CPUs:  40
 Allocation of  573.5 Mbytes of memory...
 Number of spinorbitals: 184
 Number of alpha electrons:  1
 Number of beta  electrons:  1
 Spin multiplicity: 1
 z-component of spin:  0.0
 Spatial symmetry: 1
 Convergence criterion:  1.0E-10
 Symmetry of perturbation 1: 2
 Construction of occupation graphs...
 Number of excitations for irrep 1: 
 Number of 0-fold excitations: 1
 Number of 1-fold excitations: 36
 Number of 2-fold excitations: 1219
 Total number of determinants: 1256
 Number of excitations for irrep 2: 
 Number of 0-fold excitations: 0
 Number of 1-fold excitations: 22
 Number of 2-fold excitations: 1034
 Total number of determinants: 1056
 Calculation of coupling coefficients...
 Initial perturbed amplitudes are generated.
 Length of intermediate file (Mbytes):     210.9
 Reading integral list from unit 55...
 Sorting integrals...
 Derivative of reference energy  [au]:       0.000000000000
 Calculation of MP denominators...
 Correlation energy [au]:                 -0.05860560
 Derivative of correlation energy [au]:    0.00000000
 
 Calculation of the <K|exp(-T) dH/dx exp(T)|0> term...
 
 Calculation of the <0|(1+L) exp(-T) dH/dx exp(T)|K> term...
 
 Starting right-hand LR-CC iteration for root                      1 ...
 ======================================================================
 Norm of residual vector:     1.43485502      Convergence:   1.00000000
 CPU time [min]:     2.668                   Wall time [min]:     0.248
 
 Iteration  1  CI energy:     0.00000000  Energy decrease:   0.0000E+00
 ======================================================================
 Norm of residual vector:     0.78237897      Convergence:   0.77032128
 CPU time [min]:     2.988                   Wall time [min]:     0.269
 
 Iteration  2  CI energy:     0.00000000  Energy decrease:   0.0000E+00
 ======================================================================
 Norm of residual vector:     0.19403015      Convergence:   0.13277228
 CPU time [min]:     3.372                   Wall time [min]:     0.291
 
 Iteration  3  CI energy:     0.00000000  Energy decrease:   0.0000E+00
 ======================================================================
 Norm of residual vector:     0.04013049      Convergence:   0.00884771
 CPU time [min]:     3.696                   Wall time [min]:     0.316
 
 Iteration  4  CI energy:     0.00000000  Energy decrease:   0.0000E+00
 ======================================================================
 Norm of residual vector:     0.00697841      Convergence:   0.00712534
 CPU time [min]:     4.150                   Wall time [min]:     0.338
 
 Iteration  5  CI energy:     0.00000000  Energy decrease:   0.0000E+00
 ======================================================================
 Norm of residual vector:     0.00126013      Convergence:   0.00128816
 CPU time [min]:     4.475                   Wall time [min]:     0.359
 
 Iteration  6  CI energy:     0.00000000  Energy decrease:   0.0000E+00
 ======================================================================
 Norm of residual vector:     0.00023965      Convergence:   0.00010200
 CPU time [min]:     4.800                   Wall time [min]:     0.382
 
 Iteration  7  CI energy:     0.00000000  Energy decrease:   0.0000E+00
 ======================================================================
 Norm of residual vector:     0.00004508      Convergence:   0.00001337
 CPU time [min]:     5.077                   Wall time [min]:     0.406
 
 Iteration  8  CI energy:     0.00000000  Energy decrease:   0.0000E+00
 ======================================================================
 Norm of residual vector:     0.00000726      Convergence:   0.00000487
 CPU time [min]:     5.481                   Wall time [min]:     0.429
 
 Iteration  9  CI energy:     0.00000000  Energy decrease:   0.0000E+00
 ======================================================================
 Norm of residual vector:     0.00000103      Convergence:   0.00000064
 CPU time [min]:     5.803                   Wall time [min]:     0.450
 
 Iteration 10  CI energy:     0.00000000  Energy decrease:   0.0000E+00
 ======================================================================
 Norm of residual vector:     0.00000016      Convergence:   0.00000004
 CPU time [min]:     6.191                   Wall time [min]:     0.473
 
 Iteration 11  CI energy:     0.00000000  Energy decrease:   0.0000E+00
 ======================================================================
 Norm of residual vector:     0.00000003      Convergence:   0.00000001
 CPU time [min]:     6.588                   Wall time [min]:     0.497
 
 Iteration 12  CI energy:     0.00000000  Energy decrease:   0.0000E+00
 ======================================================================
 Norm of residual vector:     3.7456E-09      Convergence:   2.6530E-09
 CPU time [min]:     6.998                   Wall time [min]:     0.520
 
 Iteration 13  CI energy:     0.00000000  Energy decrease:   0.0000E+00
 ======================================================================
 Norm of residual vector:     4.5860E-10      Convergence:   4.0236E-10
 CPU time [min]:     7.390                   Wall time [min]:     0.543
 
 Iteration 14  CI energy:     0.00000000  Energy decrease:   0.0000E+00
 ======================================================================
 Norm of residual vector:     5.3099E-11      Convergence:   4.0236E-10
 CPU time [min]:     7.760                   Wall time [min]:     0.571
 
 Iteration 15  CI energy:     0.00000000  Energy decrease:   0.0000E+00
 ======================================================================
 
 Iteration has converged in 15 steps.
 
 Final results:
 Total CCSD energy [au]:               0.000000000000
 
 
 
 Calculation of the <0|(1+L)[exp(-T) H exp(T), dT/dx]|K> term...
 
 Calculation of the <0|(1+L)[exp(-T){p+q-}exp(T), dT/dx]|0> term...
 
 Starting left-hand LR-CC iteration for root                      1 ...
 ======================================================================
 Norm of residual vector:     0.86283307
 CPU time [min]:     9.049                   Wall time [min]:     0.623
 
 Iteration  1  CI energy:     0.00000000  Energy decrease:   0.0000E+00
 ======================================================================
 Norm of residual vector:     0.31615088
 CPU time [min]:     9.918                   Wall time [min]:     0.662
 
 Iteration  2  CI energy:     0.00000000  Energy decrease:   0.0000E+00
 ======================================================================
 Norm of residual vector:     0.07906023
 CPU time [min]:    10.662                   Wall time [min]:     0.696
 
 Iteration  3  CI energy:     0.00000000  Energy decrease:   0.0000E+00
 ======================================================================
 Norm of residual vector:     0.01502245
 CPU time [min]:    11.411                   Wall time [min]:     0.731
 
 Iteration  4  CI energy:     0.00000000  Energy decrease:   0.0000E+00
 ======================================================================
 Norm of residual vector:     0.00231295
 CPU time [min]:    12.233                   Wall time [min]:     0.767
 
 Iteration  5  CI energy:     0.00000000  Energy decrease:   0.0000E+00
 ======================================================================
 Norm of residual vector:     0.00031885
 CPU time [min]:    13.041                   Wall time [min]:     0.802
 
 Iteration  6  CI energy:     0.00000000  Energy decrease:   0.0000E+00
 ======================================================================
 Norm of residual vector:     0.00004599
 CPU time [min]:    13.872                   Wall time [min]:     0.842
 
 Iteration  7  CI energy:     0.00000000  Energy decrease:   0.0000E+00
 ======================================================================
 Norm of residual vector:     0.00000636
 CPU time [min]:    14.629                   Wall time [min]:     0.878
 
 Iteration  8  CI energy:     0.00000000  Energy decrease:   0.0000E+00
 ======================================================================
 Norm of residual vector:     0.00000076
 CPU time [min]:    15.507                   Wall time [min]:     0.916
 
 Iteration  9  CI energy:     0.00000000  Energy decrease:   0.0000E+00
 ======================================================================
 Norm of residual vector:     0.00000009
 CPU time [min]:    16.289                   Wall time [min]:     0.951
 
 Iteration 10  CI energy:     0.00000000  Energy decrease:   0.0000E+00
 ======================================================================
 Norm of residual vector:     0.00000001
 CPU time [min]:    17.065                   Wall time [min]:     0.986
 
 Iteration 11  CI energy:     0.00000000  Energy decrease:   0.0000E+00
 ======================================================================
 Norm of residual vector:     1.1171E-09
 CPU time [min]:    17.847                   Wall time [min]:     1.022
 
 Iteration 12  CI energy:     0.00000000  Energy decrease:   0.0000E+00
 ======================================================================
 Norm of residual vector:     1.3400E-10
 CPU time [min]:    18.804                   Wall time [min]:     1.062
 
 Iteration 13  CI energy:     0.00000000  Energy decrease:   0.0000E+00
 ======================================================================
 Norm of residual vector:     1.6064E-11
 CPU time [min]:    19.664                   Wall time [min]:     1.104
 
 Iteration 14  CI energy:     0.00000000  Energy decrease:   0.0000E+00
 ======================================================================
 
 Iteration has converged in 14 steps.
 
 Final results:
 Total CCSD energy [au]:               0.000000000000
 
 
 
 Calculating reduced density-matrix for root 1...
 
 Total energy from RDM [au]:           0.000000000000
 
 ************************ 2020-07-27 05:21:13 *************************
                      Normal termination of mrcc.
 **********************************************************************
--executable dmrcc finished with status     0 in       68.77 seconds (walltime).
 --invoking executable--
/pool/dattani/cfour_v2.00beta/bin/xsdcc
 @GETMEM-I,  Allocated   13351 MB of main memory.
 Frequency-dependent polarizabilities are calculated at the CCSD level.
 Polarizabilities are calculated at the following frequency:
 Nr.    a.u.          nm        cm**-1
  1 0.0856000      532.282     18787.03
 Unrelaxed derivatives are calculated
 External CC code used, step:                      2
 Ex is a perturbation of irrep 2.
                     1                     2
  enter routine DINTERF to read perturbed densities
  generated from external sources 
  iuhf                     0
   enetr inidgam1
  exut inidgam1
  perturbed two-particle density matrices
 D(I,J)  
 PITERM.tmp does not exsit!
 skip reading
  @CHECKOUT-I, Total execution time (CPU/WALL):        0.00/       0.00 seconds.
--executable xsdcc finished with status     0 in        0.13 seconds (walltime).
 --invoking executable--
/pool/dattani/cfour_v2.00beta/bin/xsdcc
 @GETMEM-I,  Allocated   13351 MB of main memory.
 Frequency-dependent polarizabilities are calculated at the CCSD level.
 Polarizabilities are calculated at the following frequency:
 Nr.    a.u.          nm        cm**-1
  1 0.0856000      532.282     18787.03
 Unrelaxed derivatives are calculated
 External CC code used, step:                      1
 Ey is a perturbation of irrep 3.
                     1                     2
                     1                     3
 ABSPERT                      3                     1                     0
                     0 EW
 Perturbed integrals stored on unit 55 for use within external CC programs.
                     1                     0 F                     1
                     3
  @CHECKOUT-I, Total execution time (CPU/WALL):        3.86/       4.08 seconds.
--executable xsdcc finished with status     0 in        4.09 seconds (walltime).
 --invoking executable--
/pool/dattani/MRCC/dmrcc
 **********************************************************************
                          MRCC program system
 **********************************************************************
 
                              Written by
    Mihaly Kallay, Zoltan Rolik, Jozsef Csontos, Istvan Ladjanszki,
       Lorant Szegedy, Bence Ladoczki, Gyula Samu, Klara Petrov,
        Mate Farkas, Peter Nagy, David Mester, and Bence Hegely
 
        Department of Physical Chemistry and Materials Science
            Budapest University of Technology and Economics
                  Budapest P.O.Box 91, H-1521 Hungary
 
                              www.mrcc.hu

 ************************ 2020-07-27 05:21:18 *************************
 Executing goldstone...

 Generation of CC equations in terms of H and T...
 Generation of antisymmetrized Goldstone diagrams...
 Number of diagrams in T^1 equations:    14
 Number of diagrams in T^2 equations:    31
 Translation of diagrams to factorized equations...
 Optimizing intermediate calculation...
 Optimizing right-hand EOMCC calculation...
 Optimizing left-hand EOMCC calculation...
 Optimizing density-matrix calculation...
 Optimizing perturbed lambda equations...
 Optimizing perturbed density calculation...
 Number of floating-point operations per iteration step:   1.1834E+07
 Probable CPU time per iteration step (hours):      0.00
 Required memory (Mbytes):    8917.8
 Number of intermediates:                                 227
 Number of intermediates to be stored:                     82
 Length of intermediate file (Mbytes):     144.3

 ************************ 2020-07-27 05:21:18 *************************
 Executing xmrcc...

 **********************************************************************
 CC(                     2 ) calculation 
 
 
 Allocation of6675.5 Mbytes of memory...
 Number of spinorbitals:                   184
 Number of alpha electrons:                        1
 Number of beta electrons:                         1
 Spin multiplicity:                     1
 z-component of spin:  0.0
 Spatial symmetry:                      1
 Convergence criterion:  1.0E-10
 Symmetry of perturbation:                      3
 Construction of occupation graphs...
 Number of perturbed amplitudes: 
 Number of                     0 -fold excitations:                      0
 Number of                     1 -fold excitations:                     22
 Number of                     2 -fold excitations:                   1034
 Total number of configurations:                   1056
 Number of ground state excitations: 
 Number of                     0 -fold excitations:                      1
 Number of                     1 -fold excitations:                     36
 Number of                     2 -fold excitations:                   1219
 Total number of configurations:                   1256
 Calculation of coupling coefficients...
 Length of intermediate file (Mbytes):     210.9
 
[...]
 Norm of residual vector:     1.3400E-10
 CPU time [min]:    18.949                   Wall time [min]:     1.031
 
 Iteration 13  CI energy:     0.00000000  Energy decrease:   0.0000E+00
 ======================================================================
 Norm of residual vector:     1.6064E-11
 CPU time [min]:    19.753                   Wall time [min]:     1.065
 
 Iteration 14  CI energy:     0.00000000  Energy decrease:   0.0000E+00
 ======================================================================
 
 Iteration has converged in 14 steps.
 
 Final results:
 Total CCSD energy [au]:               0.000000000000
 
 
 
 Calculating reduced density-matrix for root 1...
 
 Total energy from RDM [au]:           0.000000000000
 
 ************************ 2020-07-27 05:22:23 *************************
                      Normal termination of mrcc.
 **********************************************************************
--executable dmrcc finished with status     0 in       66.22 seconds (walltime).
 --invoking executable--
/pool/dattani/cfour_v2.00beta/bin/xsdcc
 @GETMEM-I,  Allocated   13351 MB of main memory.
 Frequency-dependent polarizabilities are calculated at the CCSD level.
 Polarizabilities are calculated at the following frequency:
 Nr.    a.u.          nm        cm**-1
  1 0.0856000      532.282     18787.03
 Unrelaxed derivatives are calculated
 External CC code used, step:                      2
 Ey is a perturbation of irrep 3.
                     1                     3
  enter routine DINTERF to read perturbed densities
  generated from external sources 
  iuhf                     0
   enetr inidgam1
  exut inidgam1
  perturbed two-particle density matrices
 D(I,J)  
 PITERM.tmp does not exsit!
 skip reading
  @CHECKOUT-I, Total execution time (CPU/WALL):        0.00/       0.00 seconds.
--executable xsdcc finished with status     0 in        0.09 seconds (walltime).
 --invoking executable--
/pool/dattani/cfour_v2.00beta/bin/xsdcc
 @GETMEM-I,  Allocated   13351 MB of main memory.
 Frequency-dependent polarizabilities are calculated at the CCSD level.
 Polarizabilities are calculated at the following frequency:
 Nr.    a.u.          nm        cm**-1
  1 0.0856000      532.282     18787.03
 Unrelaxed derivatives are calculated
 External CC code used, step:                      1
 Ez is a perturbation of irrep 5.
                     1                     2
                     1                     3
                     1                     5
 ABSPERT                      5                     1                     0
                     0 EW
 Perturbed integrals stored on unit 55 for use within external CC programs.
                     1                     0 F                     1
                     5
  @CHECKOUT-I, Total execution time (CPU/WALL):        4.01/       4.14 seconds.
--executable xsdcc finished with status     0 in        4.14 seconds (walltime).
 --invoking executable--
/pool/dattani/MRCC/dmrcc
 **********************************************************************
                          MRCC program system
 **********************************************************************
 
                              Written by
    Mihaly Kallay, Zoltan Rolik, Jozsef Csontos, Istvan Ladjanszki,
       Lorant Szegedy, Bence Ladoczki, Gyula Samu, Klara Petrov,
        Mate Farkas, Peter Nagy, David Mester, and Bence Hegely
 
        Department of Physical Chemistry and Materials Science
            Budapest University of Technology and Economics
                  Budapest P.O.Box 91, H-1521 Hungary
 
                              www.mrcc.hu

 ************************ 2020-07-27 05:22:28 *************************
 Executing goldstone...

 Generation of CC equations in terms of H and T...
 Generation of antisymmetrized Goldstone diagrams...
 Number of diagrams in T^1 equations:    14
 Number of diagrams in T^2 equations:    31
 Translation of diagrams to factorized equations...
 Optimizing intermediate calculation...
 Optimizing right-hand EOMCC calculation...
 Optimizing left-hand EOMCC calculation...
 Optimizing density-matrix calculation...
 Optimizing perturbed lambda equations...
 Optimizing perturbed density calculation...
 Number of floating-point operations per iteration step:   1.1834E+07
 Probable CPU time per iteration step (hours):      0.00
 Required memory (Mbytes):    8917.8
 Number of intermediates:                                 227
 Number of intermediates to be stored:                     82
 Length of intermediate file (Mbytes):     144.3

 ************************ 2020-07-27 05:22:28 *************************
 Executing xmrcc...

 **********************************************************************
 CC(                     2 ) calculation 
 
 
 Allocation of6675.5 Mbytes of memory...
 Number of spinorbitals:                   184
 Number of alpha electrons:                        1
 Number of beta electrons:                         1
 Spin multiplicity:                     1
 z-component of spin:  0.0
 Spatial symmetry:                      1
 Convergence criterion:  1.0E-10
 Symmetry of perturbation:                      5
 Construction of occupation graphs...
 Number of perturbed amplitudes: 
 Number of                     0 -fold excitations:                      0
 Number of                     1 -fold excitations:                     38
 Number of                     2 -fold excitations:                   1218
 Total number of configurations:                   1256
 Number of ground state excitations: 
 Number of                     0 -fold excitations:                      1
 Number of                     1 -fold excitations:                     36
 Number of                     2 -fold excitations:                   1219
 Total number of configurations:                   1256
 Calculation of coupling coefficients...
 Length of intermediate file (Mbytes):     212.6
 
 Calculation of the <K|exp(-T) dH/dx exp(T)|0> term...
 
 Calculation of the <0|(1+L) exp(-T) dH/dx exp(T)|K> term...
 
 ======================================================================
 
 Calculation of the <0|(1+L)[exp(-T) H exp(T), dT/dx]|K> term...
 
 Calculation of the <0|(1+L)[exp(-T){p+q-}exp(T), dT/dx]|0> term...
 
 ======================================================================
 
 
 
 Memory requirements /Mbyte/: 
               Minimal        Optimal
 Real*8:         96.6669       575.9547
 Integer:         6.6363
 Total:         103.3032       582.5910
 

 ************************ 2020-07-27 05:22:29 *************************
 Executing mrcc...

 **********************************************************************
 CCSD analytic second derivative calculation                            
 
 
 OpenMP parallel version is running.
 Number of CPUs:  40
 Allocation of  576.0 Mbytes of memory...
 Number of spinorbitals: 184
 Number of alpha electrons:  1
 Number of beta  electrons:  1
 Spin multiplicity: 1
 z-component of spin:  0.0
 Spatial symmetry: 1
 Convergence criterion:  1.0E-10
 Symmetry of perturbation 1: 5
 Construction of occupation graphs...
 Number of excitations for irrep 1: 
 Number of 0-fold excitations: 1
 Number of 1-fold excitations: 36
 Number of 2-fold excitations: 1219
 Total number of determinants: 1256
 Number of excitations for irrep 5: 
 Number of 0-fold excitations: 0
 Number of 1-fold excitations: 38
 Number of 2-fold excitations: 1218
 Total number of determinants: 1256
 Calculation of coupling coefficients...
 Initial perturbed amplitudes are generated.
 Length of intermediate file (Mbytes):     212.6
 Reading integral list from unit 55...
 Sorting integrals...
 Derivative of reference energy  [au]:       0.000000000000
 Calculation of MP denominators...
 Correlation energy [au]:                 -0.05860560
 Derivative of correlation energy [au]:    0.00000000
 
 Calculation of the <K|exp(-T) dH/dx exp(T)|0> term...
 
 Calculation of the <0|(1+L) exp(-T) dH/dx exp(T)|K> term...
 
 Starting right-hand LR-CC iteration for root                      1 ...
 ======================================================================
 Norm of residual vector:     1.72375855      Convergence:   1.00000000
 CPU time [min]:     2.496                   Wall time [min]:     0.217
 
 Iteration  1  CI energy:     0.00000000  Energy decrease:   0.0000E+00
 ======================================================================
 Norm of residual vector:     1.37157797      Convergence:   0.72404650
 CPU time [min]:     2.881                   Wall time [min]:     0.239
 
 Iteration  2  CI energy:     0.00000000  Energy decrease:   0.0000E+00
 ======================================================================
 Norm of residual vector:     0.48681385      Convergence:   0.04161720
 CPU time [min]:     3.352                   Wall time [min]:     0.262
 
 Iteration  3  CI energy:     0.00000000  Energy decrease:   0.0000E+00
 ======================================================================
 Norm of residual vector:     0.11192057      Convergence:   0.06018014
 CPU time [min]:     3.771                   Wall time [min]:     0.284
 
 Iteration  4  CI energy:     0.00000000  Energy decrease:   0.0000E+00
 ======================================================================
 Norm of residual vector:     0.01997224      Convergence:   0.02329020
 CPU time [min]:     4.114                   Wall time [min]:     0.306
 
 Iteration  5  CI energy:     0.00000000  Energy decrease:   0.0000E+00
 ======================================================================
 Norm of residual vector:     0.00442538      Convergence:   0.00153162
 CPU time [min]:     4.501                   Wall time [min]:     0.337
 
 Iteration  6  CI energy:     0.00000000  Energy decrease:   0.0000E+00
 ======================================================================
 Norm of residual vector:     0.00087403      Convergence:   0.00093129
 CPU time [min]:     4.847                   Wall time [min]:     0.360
 
 Iteration  7  CI energy:     0.00000000  Energy decrease:   0.0000E+00
 ======================================================================
 Norm of residual vector:     0.00021525      Convergence:   0.00046920
 CPU time [min]:     5.208                   Wall time [min]:     0.382
 
 Iteration  8  CI energy:     0.00000000  Energy decrease:   0.0000E+00
 ======================================================================
 Norm of residual vector:     0.00005328      Convergence:   0.00002709
 CPU time [min]:     5.634                   Wall time [min]:     0.407
 
 Iteration  9  CI energy:     0.00000000  Energy decrease:   0.0000E+00
 ======================================================================
 Norm of residual vector:     0.00001053      Convergence:   0.00000286
 CPU time [min]:     6.010                   Wall time [min]:     0.429
 
 Iteration 10  CI energy:     0.00000000  Energy decrease:   0.0000E+00
 ======================================================================
 Norm of residual vector:     0.00000200      Convergence:   0.00000318
 CPU time [min]:     6.400                   Wall time [min]:     0.451
 
 Iteration 11  CI energy:     0.00000000  Energy decrease:   0.0000E+00
 ======================================================================
 Norm of residual vector:     0.00000029      Convergence:   0.00000067
 CPU time [min]:     6.745                   Wall time [min]:     0.472
 
 Iteration 12  CI energy:     0.00000000  Energy decrease:   0.0000E+00
 ======================================================================
 Norm of residual vector:     0.00000004      Convergence:   0.00000011
 CPU time [min]:     7.057                   Wall time [min]:     0.493
 
 Iteration 13  CI energy:     0.00000000  Energy decrease:   0.0000E+00
 ======================================================================
 Norm of residual vector:     0.00000001      Convergence:   0.00000000
 CPU time [min]:     7.487                   Wall time [min]:     0.519
 
 Iteration 14  CI energy:     0.00000000  Energy decrease:   0.0000E+00
 ======================================================================
 Norm of residual vector:     1.4362E-09      Convergence:   3.5520E-09
 CPU time [min]:     7.909                   Wall time [min]:     0.541
 
 Iteration 15  CI energy:     0.00000000  Energy decrease:   0.0000E+00
 ======================================================================
 Norm of residual vector:     2.1748E-10      Convergence:   8.1728E-10
 CPU time [min]:     8.263                   Wall time [min]:     0.562
 
 Iteration 16  CI energy:     0.00000000  Energy decrease:   0.0000E+00
 ======================================================================
 Norm of residual vector:     3.0393E-11      Convergence:   8.1728E-10
 CPU time [min]:     8.563                   Wall time [min]:     0.583
 
 Iteration 17  CI energy:     0.00000000  Energy decrease:   0.0000E+00
 ======================================================================
 
 Iteration has converged in 17 steps.
 
 Final results:
 Total CCSD energy [au]:               0.000000000000
 
 
 
 Calculation of the <0|(1+L)[exp(-T) H exp(T), dT/dx]|K> term...
 
 Calculation of the <0|(1+L)[exp(-T){p+q-}exp(T), dT/dx]|0> term...
 
 Starting left-hand LR-CC iteration for root                      1 ...
 ======================================================================
 Norm of residual vector:     2.01992952
 CPU time [min]:     9.916                   Wall time [min]:     0.632
 
 Iteration  1  CI energy:     0.00000000  Energy decrease:   0.0000E+00
 ======================================================================
 Norm of residual vector:     1.38925420
 CPU time [min]:    10.635                   Wall time [min]:     0.666
 
 Iteration  2  CI energy:     0.00000000  Energy decrease:   0.0000E+00
 ======================================================================
 Norm of residual vector:     0.33312396
 CPU time [min]:    11.447                   Wall time [min]:     0.701
 
 Iteration  3  CI energy:     0.00000000  Energy decrease:   0.0000E+00
 ======================================================================
 Norm of residual vector:     0.05935813
 CPU time [min]:    12.308                   Wall time [min]:     0.738
 
 Iteration  4  CI energy:     0.00000000  Energy decrease:   0.0000E+00
 ======================================================================
 Norm of residual vector:     0.00848578
 CPU time [min]:    13.164                   Wall time [min]:     0.774
 
 Iteration  5  CI energy:     0.00000000  Energy decrease:   0.0000E+00
 ======================================================================
 Norm of residual vector:     0.00136209
 CPU time [min]:    14.016                   Wall time [min]:     0.810
 
 Iteration  6  CI energy:     0.00000000  Energy decrease:   0.0000E+00
 ======================================================================
 Norm of residual vector:     0.00023723
 CPU time [min]:    14.891                   Wall time [min]:     0.848
 
 Iteration  7  CI energy:     0.00000000  Energy decrease:   0.0000E+00
 ======================================================================
 Norm of residual vector:     0.00003906
 CPU time [min]:    15.727                   Wall time [min]:     0.883
 
 Iteration  8  CI energy:     0.00000000  Energy decrease:   0.0000E+00
 ======================================================================
 Norm of residual vector:     0.00000771
 CPU time [min]:    16.539                   Wall time [min]:     0.924
 
 Iteration  9  CI energy:     0.00000000  Energy decrease:   0.0000E+00
 ======================================================================
 Norm of residual vector:     0.00000152
 CPU time [min]:    17.327                   Wall time [min]:     0.959
 
 Iteration 10  CI energy:     0.00000000  Energy decrease:   0.0000E+00
 ======================================================================
 Norm of residual vector:     0.00000025
 CPU time [min]:    18.114                   Wall time [min]:     0.994
 
 Iteration 11  CI energy:     0.00000000  Energy decrease:   0.0000E+00
 ======================================================================
 Norm of residual vector:     0.00000004
 CPU time [min]:    18.996                   Wall time [min]:     1.031
 
 Iteration 12  CI energy:     0.00000000  Energy decrease:   0.0000E+00
 ======================================================================
 Norm of residual vector:     0.00000001
 CPU time [min]:    19.808                   Wall time [min]:     1.068
 
 Iteration 13  CI energy:     0.00000000  Energy decrease:   0.0000E+00
 ======================================================================
 Norm of residual vector:     7.0148E-10
 CPU time [min]:    20.641                   Wall time [min]:     1.108
 
 Iteration 14  CI energy:     0.00000000  Energy decrease:   0.0000E+00
 ======================================================================
 Norm of residual vector:     1.0043E-10
 CPU time [min]:    21.400                   Wall time [min]:     1.143
 
 Iteration 15  CI energy:     0.00000000  Energy decrease:   0.0000E+00
 ======================================================================
 Norm of residual vector:     1.3630E-11
 CPU time [min]:    22.204                   Wall time [min]:     1.184
 
 Iteration 16  CI energy:     0.00000000  Energy decrease:   0.0000E+00
 ======================================================================
 
 Iteration has converged in 16 steps.
 
 Final results:
 Total CCSD energy [au]:               0.000000000000
 
 
 
 Calculating reduced density-matrix for root 1...
 
 Total energy from RDM [au]:           0.000000000000
 
 ************************ 2020-07-27 05:23:41 *************************
                      Normal termination of mrcc.
 **********************************************************************
--executable dmrcc finished with status     0 in       73.35 seconds (walltime).
 --invoking executable--
/pool/dattani/cfour_v2.00beta/bin/xsdcc
 @GETMEM-I,  Allocated   13351 MB of main memory.
 Frequency-dependent polarizabilities are calculated at the CCSD level.
 Polarizabilities are calculated at the following frequency:
 Nr.    a.u.          nm        cm**-1
  1 0.0856000      532.282     18787.03
 Unrelaxed derivatives are calculated
 External CC code used, step:                      2
 Ez is a perturbation of irrep 5.
                     1                     5
  enter routine DINTERF to read perturbed densities
  generated from external sources 
  iuhf                     0
   enetr inidgam1
  exut inidgam1
  perturbed two-particle density matrices
 D(I,J)  
 PITERM.tmp does not exsit!
 skip reading
  @CHECKOUT-I, Total execution time (CPU/WALL):        0.00/       0.00 seconds.
--executable xsdcc finished with status     0 in        0.12 seconds (walltime).
 --invoking executable--
/pool/dattani/cfour_v2.00beta/bin/xjoda
  -------------------------------------------------------------------
        CCSD frequency-dependent Polarizability Tensor (in a.u.)
  -------------------------------------------------------------------
        at frequency 0.08560 a.u. ( 532.282 nm,  18787.03 cm**-1)

                         X            Y            Z
                X    8.6081920    0.0000000    0.0000000
                Y    0.0000000    8.6081920    0.0000000
                Z    0.0000000    0.0000000   17.3097318
  -------------------------------------------------------------------
  @CHECKOUT-I, Total execution time (CPU/WALL):        0.01/       0.01 seconds.
--executable xjoda finished with status     0 in        0.02 seconds (walltime).
  The final electronic energy is        -0.928161992153724 a.u. 
  This computation required                          318.38 seconds (walltime).
