 --invoking executable--
/opt/cfour/2.1/bin/xjoda


   *************************************************************************
         <<<     CCCCCC     CCCCCC   |||     CCCCCC     CCCCCC   >>>
       <<<      CCC        CCC       |||    CCC        CCC         >>>
      <<<      CCC        CCC        |||   CCC        CCC            >>>
    <<<        CCC        CCC        |||   CCC        CCC              >>>
      <<<      CCC        CCC        |||   CCC        CCC            >>>
       <<<      CCC        CCC       |||    CCC        CCC         >>>
         <<<     CCCCCC     CCCCCC   |||     CCCCCC     CCCCCC   >>>
   *************************************************************************

     ****************************************************************
     * CFOUR Coupled-Cluster techniques for Computational Chemistry *
     ****************************************************************


   Department of Chemistry                Institut fuer Physikalische Chemie
   University of Florida                  Universitaet Mainz
   Gainesville, FL 32611, USA             D-55099 Mainz, Germany

   Department of Chemistry                Fakultaet fuer Chemie und Biowiss.
   Johns Hopkins University               Karlsruher Institut fuer Technologie
   Baltimore, MD 21218, USA               D-76131 Karlsruhe, Germany

   Department of Chemistry                Department of Physical Chemistry
   Southern Methodist University          Eotvos Lorand University
   Dallas, TX 75275, USA                  H-1053 Budapest, Hungary


                       Version 2.1

                     node025                                           
                     Wed 05 Mar 2025 08:05:42 AM PST                   
                     integer*8 version is running

********************************************************************************
*                          Input from ZMAT file                                *
********************************************************************************
Optimization on FeCO5                                                           
Fe                                                                              
C 1 rFeCAx*                                                                     
C 1 rFeCEq* 2 a90                                                               
C 1 rFeCEq* 3 a120 2 dn90                                                       
C 1 rFeCEq* 3 a120 2 d90                                                        
C 1 rFeCAx* 3 a90 4 dn90                                                        
O 1 rFeOAx* 3 a90 4 d90                                                         
O 1 rFeOAx* 3 a90 4 dn90                                                        
O 1 rFeOEq* 2 a90 3 d0                                                          
O 1 rFeOEq* 2 a90 4 d0                                                          
O 1 rFeOEq* 2 a90 5 d0                                                          
                                                                                
rFeCAx =    1.829565855794663                                                   
rFeCEq =    1.830427937707052                                                   
rFeOAx =    2.983800083699976                                                   
rFeOEq =    2.987529988574558                                                   
a90    =   90.00000                                                             
a120   =  120.00000                                                             
dn90   =  -90.00000                                                             
d0     =    0.00000                                                             
d90    =   90.00000                                                             
                                                                                
*ACES2(CALC = CCSD(T)                                                           
      BASIS = SPECIAL                                                           
FROZEN_CORE = ON                                                                
   SCF_CONV = 10                                                                
    CC_CONV = 8                                                                 
 LINEQ_CONV = 8                                                                 
   SCF_MAXCYC = 500                                                             
    CC_MAXCYC = 500                                                             
 LINEQ_MAXCYC = 500                                                             
       MEMORY = 32                                                              
     MEM_UNIT = GB)                                                             
                                                                                
Fe:cc-pVDZ                                                                      
C:cc-pVDZ                                                                       
C:cc-pVDZ                                                                       
C:cc-pVDZ                                                                       
C:cc-pVDZ                                                                       
C:cc-pVDZ                                                                       
O:cc-pVDZ                                                                       
O:cc-pVDZ                                                                       
O:cc-pVDZ                                                                       
O:cc-pVDZ                                                                       
O:cc-pVDZ                                                                       
                                                                                
********************************************************************************
    -------------------------------------------------------------------
                    CFOUR Control Parameters 
    -------------------------------------------------------------------
        External           Internal           Value            Units
          Name               Name
    -------------------------------------------------------------------
       ABCDTYPE             IABCDT         STANDARD    [  0]    ***   
       ANHARMONIC           IANHAR         OFF         [  0]    ***   
       ANH_ALGORIT          IANALG         STANDARD    [  0]    ***   
       ANH_DERIVAT          IANDER         SECOND      [  1]    ***   
       ANH_MODE             ANHMOD         VIBRATION   [  0]    ***   
       ANH_STEPSIZ          ICUBST             50000          x 10-6  
       ANH_SYMMETR          IANHSM         ABELIAN     [  0]    ***   
       AO_LADDERS           IAOLAD         SINGLEPASS  [  1]    ***   
       AV_SCF               IAVSCF         OFF         [  0]    ***   
       BASIS                IBASIS         SPECIAL     [  0]    ***   
       BOTHVECTORS          BOTHVC         OFF         [  0]    ***   
       BOX_POTENT           IPIAB          OFF         [  0]    ***   
       BREIT                IBREIT         OFF         [  0]    ***   
       BRUCK_CONV           IBRTOL          10D-  4             ***   
       BRUECKNER            IBRKNR         OFF         [  0]    ***   
       BUFFERSIZE           IBUFFS              4096            ***   
       CACHE_RECS           ICHREC             10               ***   
       CALCLEVEL            ICLLVL         CCSD(T)     [ 22]    ***   
       CCORBOPT             ICCORB         OFF         [  0]  x 0.01  
       CC_CONV              ICCCNV          10D-  8             ***   
       CC_EXPORDER          ICCEOR              5               ***   
       CC_EXTRAPOL          ICCEXT         DIIS        [  1]    ***   
       CC_GUESS             ICCGES         MP2         [  0]    ***   
       CC_MAXCYC            ICCCYC            500              cycles 
       CC_PROGRAM           ICCPRO         VCC         [  0]    ***   
       CHARGE               ICHRGE              0               ***   
       CHOLESKY             ICHOLE         OFF         [  0]    ***   
       CIS_CONV             ICISTL              5               ***   
       COMM_SIZE            IPSIZE            ***               ***   
       CONSTANT             ICONST         OLD         [  1]    ***   
       CONTINUUM            ICONTU         NONE        [  0]    ***   
       CONTRACTION          ICNTYP         GENERAL     [  1]    ***   
       COORDINATES          ICOORD         INTERNAL    [  0]    ***   
       CPHF_CONVER          ICPHFT          10D- 16             ***   
       CPHF_MAXCYC          ICPHFC             64              cycles 
       CUBIC                ICUBIC         OFF         [  0]    ***   
       CURVILINEAR          ICURVY         OFF         [  0]    ***   
       DBOC                 IDBOC          OFF         [  0]    ***   
       DCT                  IDCT           OFF         [  0]    ***   
       DERIV_LEV            IDRLVL         FIRST       [  1]    ***   
       DEVMEM_SIZE          IDVMEM         *********           MByte  
       DIAG_MRCC            IEOMST          10D-  0             ***   
       DIFF_TYPE            IDIFTY         RELAXED     [  0]    ***   
       DIRECT               IDIRCT         OFF         [  0]    ***   
       DROPMO               IDRPMO      NONE         
       ECP                  IECP           OFF         [  0]    ***   
       EIGENVECTOR          IVEC                1               ***   
       EL_ANHARM            IELANH         OFF         [  0]    ***   
       EOMFOLLOW            IEOMSR         ENERGY      [  0]    ***   
       EOMIP                IEOMIP         OFF         [  0]    ***   
       EOMLEVEL             HBARFM         SAME        [  0]    ***   
       EOM_MRCC             IMRCCE         NEW         [  1]    ***   
       EOM_NONIT            EOMNON         OFF         [  0]    ***   
       EOM_NSING            IEOMSI          10D-  0             ***   
       EOM_NSTATES          IMRCCD         DAVIDSON    [  0]    ***   
       EOM_NTRIP            IEOMTR          10D-  0             ***   
       EOM_ORDER            IEXORD         ENERGY      [  0]    ***   
       EOM_PROPSTA          IEOMST              0               ***   
       ESTATE_CONV          IEXTOL          10D-  5             ***   
       ESTATE_DIAG          IEXDIG         ITERATIVE   [  0]    ***   
       ESTATE_LOCK          IESLOC         ON          [  1]    ***   
       ESTATE_MAXC          IEXMXC             40               ***   
       ESTATE_PROP          IEXPRP         OFF         [  0]    ***   
       EVAL_HESS            IRECAL              0            # of cyc.
       EXCITATION           IEXCIT              0               ***   
       EXCITE               IEXCIT         NONE        [  0]    ***   
       EXTERN_POT           IEXPOT         OFF         [  0]    ***   
       FCGRADNEW            IFCGNW         ON          [  1]    ***   
       FC_FIELD             IFINFC              0             x 10-6  
       FD_CALTYPE           IFDCAL         GRADONLY    [  0]    ***   
       FD_PROJECT           IFDPRJ         OFF         [  1]    ***   
       FD_STEPSIZE          IDISFD              0            10-4 bohr
       FD_USEGROUP          IFDGRP         FULL        [  0]    ***   
       FILE_RECSIZ          IFLREC              4096           words  
       FINITE_PERT          IFIPER              0             x 10-6  
       FIXGEOM              IFIXGM         OFF         [  0]    ***   
       FOCK                 IFOCK          AO          [  1]    ***   
       FREQ_ALGORI          IVIALG         STANDARD    [  0]    ***   
       FROZEN_CORE          IFROCO         ON          [  1]    ***   
       GAMMA_ABCD           IGABCD         STORE       [  0]    ***   
       GAMMA_ABCI           IGABCI         STORE       [  0]    ***   
       GENBAS_1             IGNBS1              0               ***   
       GENBAS_2             IGNBS2              0               ***   
       GENBAS_3             IGNBS3              0               ***   
       GENBAS_4             IGNBS4              0               ***   
       GEO_CONV             ICONTL              5              H/bohr 
       GEO_MAXCYC           IOPTCY             50               ***   
       GEO_MAXSTEP          IMXSTP            300            millibohr
       GEO_METHOD           INR            NR          [  0]    ***   
       GIAO                 IGIAO          OFF         [  1]    ***   
       GIMIC                IGIMIC         OFF         [  0]    ***   
       GRID                 IGRID          OFF         [  0]    ***   
       GRID_ALGO            IGALGO         SERIAL      [  0]    ***   
       GUESS                IGUESS         MOREAD      [  0]    ***   
       HBAR                 IHBAR          OFF         [  0]    ***   
       HESS_TYPE            IHESTP         SCF         [  0]    ***   
       HF2_FILE             IHF2Fl         USE         [  1]    ***   
       HFSTABILITY          ISTABL         OFF         [  0]    ***   
       INCORE               INCORE         OFF         [  0]    ***   
       INPUT_MRCC           IMRCC          ON          [  1]    ***   
       INTEGRALS            INTTYP         VMOL        [  1]    ***   
       JODA_PRINT           IJPRNT              0               ***   
       KEYWORD_OUT          IDMPKW         NO          [  0]    ***   
       LINDEP_TOL           ILINDP              8               ***   
       LINEQ_CONV           IZTACN          10D-  8           cycles  
       LINEQ_EXPOR          ILMAXD              5               ***   
       LINEQ_MAXCY          ILMAXC            500               ***   
       LINEQ_TYPE           ILTYPE         DIIS        [  1]    ***   
       LOCK_ORBOCC          ILOCOC         OFF         [  0]    ***   
       MEMORY_SIZE          IMEMSZ         *********           words  
       MEM_UNIT             IMEMU          GB          [  3]    ***   
       MRCC                 IMRCCC         OFF         [  0]    ***   
       MULTIPLICTY          IMULTP              1               ***   
       NACOUPLING           IVCOUP         OFF         [  0]    ***   
       NEGEVAL              IDIE           ABORT       [  0]    ***   
       NEWNORM              INEWNO         OFF         [  0]    ***   
       NON-HF               INONHF         OFF         [  0]    ***   
       NTOP_TAMP            ITOPT2             15               ***   
       NUC_MODEL            INUCMO         POINT       [  0]    ***   
       OCCUPATION           IOCCU   ESTIMATED BY SCF 
       OPEN-SHELL           IOPEN          SPIN-ORBITAL[  0]    ***   
       OPTVIB               IOPTVB         OFF         [  0]    ***   
       ORBITALS             IORBTP         STANDARD    [  0]    ***   
       PARALLEL             IPARAL         ON          [  1]    ***   
       PARA_INT             IPINTS         ON          [  1]    ***   
       PARA_PRINT           IPPRIN              0               ***   
       PERT_ORB             IPTORB         CANONICAL   [  1]    ***   
       POINTS               IGRDFD              0               ***   
       PRINT                IPRNT               0               ***   
       PROPS                IPROPS         OFF         [  0]    ***   
       PROP_INTEGR          IINTYP         INTERNAL    [  0]    ***   
       PSI                  IPSI           OFF         [  0]    ***   
       QC_ALG               IQCALG         FLM         [  0]    ***   
       QC_LINALG            IQCLIN         TRIDIAG     [  2]    ***   
       QC_MAXCYC            IQCMAX          10D-100           cycles  
       QC_MAXSCFCY          IQCMSC          10D- 15           cycles  
       QC_RTRUST            IQCRTR          10D-  0           x 10-3  
       QC_SKIPSCF           IQCSKI         OFF         [  0]    ***   
       QC_START             IQCSTA          10D-  1             ***   
       QRHFGUESS            IQGUES         OFF         [  0]    ***   
       QUARTIC              IQUART         OFF         [  0]    ***   
       RAMAN_INT            IRAMIN         OFF         [  0]    ***   
       RAMAN_ORB            IRAMRE         UNRELAXED   [  0]    ***   
       RDO                  IRDOFM         ON          [  1]    ***   
       REDUCE_REPR          REDREP         Ir          [  0]    ***   
       REFERENCE            IREFNC         RHF         [  0]    ***   
       RELATIVIST           IRELAT         OFF         [  0]    ***   
       RELAX_DENS           IRDENS         ON          [  1]    ***   
       RESET_FLAGS          IRESET         OFF         [  0]    ***   
       RESTART_CC           ICCRES         OFF         [  0]    ***   
       ROT_EVEC             ROTVEC              0               ***   
       SAVE_INTS            ISVINT         OFF         [  0]    ***   
       SCALE_ON             ISTCRT              0               ***   
       SCF_CONV             ISCFCV          10D- 10             ***   
       SCF_DAMPING          IDAMP               0             x 10-3  
       SCF_EXPORDE          IRPPOR              6               ***   
       SCF_EXPSTAR          IRPPLS              8               ***   
       SCF_EXTRAPO          IRPP           ON          [  1]    ***   
       SCF_MAXCYC           ISCFCY            500              cycles 
       SCF_NOSTOP           ISCFST         OFF         [  0]    ***   
       SCF_PRINT            ISCFPR              0               ***   
       SCF_PROG             ISCFPR         SCF         [  0]    ***   
       SD_FIELD             IFINSD              0             x 10-6  
       SOPERT               IPERSO         OFF         [  0]    ***   
       SPHERICAL            IDFGHI         ON          [  1]    ***   
       SPINORBIT            ISOCAL         OFF         [  0]    ***   
       SPINROTATIO          ISRCON         OFF         [  0]    ***   
       SPIN_FLIP            ISPFLP         OFF         [  0]    ***   
       SPIN_ORBIT           ISPORB         OFF         [  0]    ***   
       SPIN_SCAL            ISCSMP         OFF         [  0]    ***   
       STEEPSCALE           ISTPSC              1000          x 10-3  
       SUBGROUP             ISUBGP         DEFAULT     [  0]    ***   
       SUBGRPAXIS           ISBXYZ         X           [  0]    ***   
       SYMMETRY             ISYM           ON          [  0]    ***   
       SYM_CHECK            ISYMCK         OVERRIDE    [  1]    ***   
       T3_EXTRAPOL          IT3EXT         OFF         [  0]    ***   
       T4_EXTRAPOL          IT4EXP         OFF         [  0]    ***   
       TAMP_SUM             IEVERY              5               ***   
       TESTSUITE            ITESTS         OFF         [  0]    ***   
       THERMOCH             ITHERM         OFF         [  0]    ***   
       TOL_CHOLESK          ITOLCH          10D-  4             ***   
       TRANGRAD             IRESRM         OFF         [  0]    ***   
       TRANS_INV            ITRAIN         USE         [  0]    ***   
       TREAT_PERT           ITREAT         SIMULTANEOUS[  0]    ***   
       TRIP_ALGORI          ITRALG         NORMAL      [  0]    ***   
       UIJ_THRESHO          IUIJTH              1               ***   
       UNITS                IUNITS         ANGSTROM    [  0]    ***   
       UNOS                 IUNOS          OFF         [  0]    ***   
       UPDATE_HESS          IHUPDT         ON          [  1]    ***   
       VIBPHASE             ISETPH         STANDARD    [  0]    ***   
       VIBRATION            IVIB           NO          [  0]    ***   
       VIB_ALGORIT          IGEALG         STANDARD    [  0]    ***   
       VNATORB              IVNORB         OFF         [  0]    ***   
       VTRAN                IVTRAN         FULL/PARTIAL[  0]    ***   
       XFIELD               IXEFLD              0             x 10-6  
       XFORM_TOL            IXFTOL          10D- 11             ***   
       YFIELD               IYEFLD              0             x 10-6  
       ZFIELD               IZEFLD              0             x 10-6  
       ZSCALE_EXP           IZEXPS         OFF         [  0]    ***   
    -------------------------------------------------------------------
  11 entries found in Z-matrix 
   Job Title : Optimization on FeCO5                                                           
   There are  9 unique internal coordinates.
   Of these,  4 will be optimized.
   User supplied Z-matrix: 
--------------------------------------------------------------------------------
       SYMBOL    BOND      LENGTH    ANGLE     ANGLE     DIHED     ANGLE
                  TO      (ANGST)    WRT      (DEG)      WRT      (DEG)
--------------------------------------------------------------------------------
        Fe   
        C          1         rFeCA
        C          1         rFeCE      2        a90  
        C          1         rFeCE      3        a120       2        dn90 
        C          1         rFeCE      3        a120       2        d90  
        C          1         rFeCA      3        a90        4        dn90 
        O          1         rFeOA      3        a90        4        d90  
        O          1         rFeOA      3        a90        4        dn90 
        O          1         rFeOE      2        a90        3        d0   
        O          1         rFeOE      2        a90        4        d0   
        O          1         rFeOE      2        a90        5        d0   
                  *Initial values for internal coordinates* 
                      Name             Value
                        rFeCA           1.8295658558
                        rFeCE           1.8304279377
                        a90            90.0000000000
                        a120          120.0000000000
                        dn90          -90.0000000000
                        d90            90.0000000000
                        rFeOA           2.9838000837
                        rFeOE           2.9875299886
                        d0              0.0000000000
--------------------------------------------------------------------------------
  filter applied 
  filter applied 
   Rotational constants (in cm-1): 
          0.0263568807             0.0263568807             0.0307118455
   Rotational constants (in MHz): 
        790.1595147912           790.1595147912           920.7180943059
********************************************************************************
   The full molecular point group is D3h .
   The largest Abelian subgroup of the full molecular point group is C2v .
   The computational point group is C2v .
********************************************************************************
--------------------------------------------------------------------------------
   Analysis of internal coordinates specified by Z-matrix 
--------------------------------------------------------------------------------
   *The nuclear repulsion energy is  794.324169968254409 a.u.
   *There are   4 degrees of freedom within the tot. symm. molecular subspace.
   *Z-matrix requests optimization of   4 coordinates.
   *The optimization is unconstrained and your Z-matrix is great.
--------------------------------------------------------------------------------


 ----------------------------------------------------------------
         Coordinates used in calculation (QCOMP) 
 ----------------------------------------------------------------
 Z-matrix   Atomic            Coordinates (in bohr)
  Symbol    Number           X              Y              Z
 ----------------------------------------------------------------
     FE       26         0.00000000     0.00000000     0.00000000
     C         6         0.00000000    -3.45737912     0.00000000
     C         6        -2.99558899     0.00000000    -1.72950411
     C         6        -0.00000000     0.00000000     3.45900822
     C         6         2.99558899    -0.00000000    -1.72950411
     C         6        -0.00000000     3.45737912     0.00000000
     O         8        -0.00000000    -5.63856615     0.00000000
     O         8        -0.00000000     5.63856615     0.00000000
     O         8        -4.88924571    -0.00000000    -2.82280733
     O         8        -0.00000000    -0.00000000     5.64561465
     O         8         4.88924571    -0.00000000    -2.82280733
 ----------------------------------------------------------------

   Interatomic distance matrix (Angstroms) 

                 FE            C             C             C             C    
                [ 1]        [ 2]        [ 3]        [ 4]        [ 5]
  FE   [ 1]     0.00000
  C    [ 2]     1.82957     0.00000
  C    [ 3]     1.83043     2.58801     0.00000
  C    [ 4]     1.83043     2.58801     3.17039     0.00000
  C    [ 5]     1.83043     2.58801     3.17039     3.17039     0.00000
  C    [ 6]     1.82957     3.65913     2.58801     2.58801     2.58801
  O    [ 7]     2.98380     1.15423     3.50050     3.50050     3.50050
  O    [ 8]     2.98380     4.81337     3.50050     3.50050     3.50050
  O    [ 9]     2.98753     3.50323     1.15710     4.21239     4.21239
  O    [10]     2.98753     3.50323     4.21239     1.15710     4.21239
  O    [11]     2.98753     3.50323     4.21239     4.21239     1.15710

                 C             O             O             O             O    
                [ 6]        [ 7]        [ 8]        [ 9]        [10]
  C    [ 6]     0.00000
  O    [ 7]     4.81337     0.00000
  O    [ 8]     1.15423     5.96760     0.00000
  O    [ 9]     3.50323     4.22237     4.22237     0.00000
  O    [10]     3.50323     4.22237     4.22237     5.17455     0.00000
  O    [11]     3.50323     4.22237     4.22237     5.17455     5.17455

                 O    
                [11]
  O    [11]     0.00000
 rotcon2
   Rotational constants (in cm-1): 
          0.0263568807             0.0307118455             0.0263568807
   Rotational constants (in MHz): 
        790.1595147912           920.7180943059           790.1595147912
  ECPDATA file not present.   Using default ECPDATA. 
  There are  19 frozen-core orbitals.
  There are  183 basis functions.
 @CHECKOUT-I, Total execution time (CPU/WALL):        1.19/       0.49 seconds.
--executable xjoda finished with status     0 in        0.52 seconds (walltime).
 --invoking executable--
/opt/cfour/2.1/bin/xvmol
 SERIAL VERSION OF MOLECULE STARTED
********************************************************************************
                    INPUT FROM MOL FILE
********************************************************************************
INTGRL        1    0    1    0    0    0    0    0    0                         
         *** CFOUR Program System (Release V0.1) ***                            
Optimization on FeCO5                                                           
    7    2 X  Y       0.10E-08              0    0                              
   9999.00      3.00                                                            
         26.00000000    1    4    1    1    1    1                              
FE#1   0.000000000000000   0.000000000000000   0.000000000000000                
   20    6                                                                      
   4316265.0000000000        8.0488029999999998E-006  -4.1559539999999997E-006  
   646342.40000000002        6.2583059999999998E-005  -3.2314010000000003E-005  
   147089.70000000001        3.2902389999999999E-004  -1.6995250000000000E-004  
   41661.519999999997        1.3873550000000001E-003  -7.1713690000000004E-004  
   13590.770000000000        5.0232560000000002E-003  -2.6036250000000000E-003  
   4905.7500000000000        1.6101399999999998E-002  -8.3991090000000001E-003  
   1912.7460000000001        4.5900339999999998E-002  -2.4341089999999999E-002  
   792.60429999999997       0.11361540000000001       -6.2519480000000002E-002  
   344.80650000000003       0.22838690000000000      -0.13659289999999999       
   155.89990000000000       0.32211590000000001      -0.23127070000000000       
   72.230909999999994       0.23836610000000000      -0.23837340000000001       
   32.725059999999999        7.4046669999999995E-002   3.1238370000000001E-002  
   15.667619999999999        9.2141970000000004E-002  0.50868179999999996      -
   7.5034830000000001        9.3397900000000006E-002  0.49876949999999998      -
   3.3122229999999999        1.5739650000000001E-002   9.0335520000000002E-002  
   1.5584709999999999       -4.1866819999999998E-004  -6.0053370000000003E-003  
  0.68391400000000002        5.3763179999999999E-005   2.3124539999999999E-004  
  0.14675700000000000       -3.8166539999999997E-005  -5.6436799999999999E-004  
   7.0583000000000007E-002   4.3196030000000000E-005   4.9922599999999997E-004  
   3.1448999999999998E-002  -3.4010190000000000E-006  -1.0152930000000000E-004  
   16    5                                                                      
   17745.689999999999        4.1000000000000000E-005  -1.5000000000000000E-005  
   4200.7209999999995        3.6900000000000002E-004  -1.2999999999999999E-004  
   1364.4290000000001        2.1289999999999998E-003  -7.5100000000000004E-004  
   522.08060000000000        9.3690000000000006E-003  -3.3289999999999999E-003  
   221.45949999999999        3.3097000000000001E-002  -1.1912000000000001E-002  
   100.90960000000000        9.4431000000000001E-002  -3.4932999999999999E-002  
   48.401150000000001       0.20807700000000001       -7.9989000000000005E-002  
   23.985360000000000       0.33233299999999999      -0.13463600000000001       
   12.182499999999999       0.33298699999999998      -0.13859800000000000       
   6.2422979999999999       0.15684300000000001        3.0277999999999999E-002  
   3.1109439999999999        2.1548999999999999E-002  0.33321600000000001      -
   1.5099579999999999       -2.0950000000000001E-003  0.45615299999999998      -
  0.71084499999999995       -1.7390000000000001E-003  0.28505100000000000      -
  0.27318999999999999       -2.9999999999999997E-004   4.6143999999999998E-002  
  0.10423300000000001        2.9000000000000000E-005  -3.2490000000000002E-003  
   3.8290999999999999E-002  -1.1000000000000000E-005   1.3569999999999999E-003  
    8    3                                                                      
   113.34399999999999        3.5300000000000002E-003  -3.8899999999999998E-003  
   33.641399999999997        2.5784000000000001E-002  -2.8441999999999999E-002  
   12.331000000000000        9.9118999999999999E-002 -0.11242900000000000       
   4.9947800000000004       0.23907300000000001      -0.27425699999999997       
   2.0728000000000000       0.35719899999999999      -0.31554599999999999       
  0.83075299999999996       0.36218800000000001        5.7109000000000000E-002  
  0.30917800000000001       0.23646100000000000       0.56360399999999999       
  0.10013000000000000        6.0117999999999998E-002  0.38463700000000001       
    2    1                                                                      
   3.2242999999999999       0.42224899999999999                                 
  0.77580000000000005       0.77146800000000004                                 
          6.00000000    1    3    1    1    1                                   
C #2   0.000000000000000  -3.457379119003190   0.000000000000000                
    9    3                                                                      
   6665.0000000000000        6.9200000000000002E-004  -1.4600000000000000E-004  
   1000.0000000000000        5.3290000000000004E-003  -1.1540000000000001E-003  
   228.00000000000000        2.7077000000000000E-002  -5.7250000000000001E-003  
   64.709999999999994       0.10171800000000000       -2.3311999999999999E-002  
   21.059999999999999       0.27473999999999998       -6.3954999999999998E-002  
   7.4950000000000001       0.44856400000000002      -0.14998100000000000       
   2.7970000000000002       0.28507399999999999      -0.12726199999999999       
  0.52149999999999996        1.5204000000000001E-002  0.54452900000000004       
  0.15959999999999999       -3.1909999999999998E-003  0.58049600000000001       
    4    2                                                                      
   9.4390000000000001        3.8108999999999997E-002   0.0000000000000000       
   2.0019999999999998       0.20948000000000000        0.0000000000000000       
  0.54559999999999997       0.50855700000000004        0.0000000000000000       
  0.15170000000000000       0.46884199999999998        1.0000000000000000       
    1    1                                                                      
  0.55000000000000004        1.0000000000000000                                 
          6.00000000    1    3    1    1    1                                   
C #3  -2.995588988735656   0.000000000000000  -1.729504109028010                
    9    3                                                                      
   6665.0000000000000        6.9200000000000002E-004  -1.4600000000000000E-004  
   1000.0000000000000        5.3290000000000004E-003  -1.1540000000000001E-003  
   228.00000000000000        2.7077000000000000E-002  -5.7250000000000001E-003  
   64.709999999999994       0.10171800000000000       -2.3311999999999999E-002  
   21.059999999999999       0.27473999999999998       -6.3954999999999998E-002  
   7.4950000000000001       0.44856400000000002      -0.14998100000000000       
   2.7970000000000002       0.28507399999999999      -0.12726199999999999       
  0.52149999999999996        1.5204000000000001E-002  0.54452900000000004       
  0.15959999999999999       -3.1909999999999998E-003  0.58049600000000001       
    4    2                                                                      
   9.4390000000000001        3.8108999999999997E-002   0.0000000000000000       
   2.0019999999999998       0.20948000000000000        0.0000000000000000       
  0.54559999999999997       0.50855700000000004        0.0000000000000000       
  0.15170000000000000       0.46884199999999998        1.0000000000000000       
    1    1                                                                      
  0.55000000000000004        1.0000000000000000                                 
          6.00000000    1    3    1    1    1                                   
C #4  -0.000000000000001   0.000000000000000   3.459008218056020                
    9    3                                                                      
   6665.0000000000000        6.9200000000000002E-004  -1.4600000000000000E-004  
   1000.0000000000000        5.3290000000000004E-003  -1.1540000000000001E-003  
   228.00000000000000        2.7077000000000000E-002  -5.7250000000000001E-003  
   64.709999999999994       0.10171800000000000       -2.3311999999999999E-002  
   21.059999999999999       0.27473999999999998       -6.3954999999999998E-002  
   7.4950000000000001       0.44856400000000002      -0.14998100000000000       
   2.7970000000000002       0.28507399999999999      -0.12726199999999999       
  0.52149999999999996        1.5204000000000001E-002  0.54452900000000004       
  0.15959999999999999       -3.1909999999999998E-003  0.58049600000000001       
    4    2                                                                      
   9.4390000000000001        3.8108999999999997E-002   0.0000000000000000       
   2.0019999999999998       0.20948000000000000        0.0000000000000000       
  0.54559999999999997       0.50855700000000004        0.0000000000000000       
  0.15170000000000000       0.46884199999999998        1.0000000000000000       
    1    1                                                                      
  0.55000000000000004        1.0000000000000000                                 
          8.00000000    1    3    1    1    1                                   
O #5  -0.000000000000000  -5.638566150538215   0.000000000000000                
    9    3                                                                      
   11720.000000000000        7.1000000000000002E-004  -1.6000000000000001E-004  
   1759.0000000000000        5.4700000000000000E-003  -1.2630000000000000E-003  
   400.80000000000001        2.7837000000000001E-002  -6.2670000000000000E-003  
   113.70000000000000       0.10480000000000000       -2.5715999999999999E-002  
   37.030000000000001       0.28306199999999998       -7.0924000000000001E-002  
   13.270000000000000       0.44871899999999998      -0.16541100000000000       
   5.0250000000000004       0.27095200000000003      -0.11695500000000000       
   1.0129999999999999        1.5458000000000000E-002  0.55736799999999997       
  0.30230000000000001       -2.5850000000000001E-003  0.57275900000000002       
    4    2                                                                      
   17.699999999999999        4.3018000000000001E-002   0.0000000000000000       
   3.8540000000000001       0.22891300000000001        0.0000000000000000       
   1.0460000000000000       0.50872799999999996        0.0000000000000000       
  0.27529999999999999       0.46053100000000002        1.0000000000000000       
    1    1                                                                      
   1.1850000000000001        1.0000000000000000                                 
          8.00000000    1    3    1    1    1                                   
O #6  -4.889245707483187  -0.000000000000000  -2.822807325349641                
    9    3                                                                      
   11720.000000000000        7.1000000000000002E-004  -1.6000000000000001E-004  
   1759.0000000000000        5.4700000000000000E-003  -1.2630000000000000E-003  
   400.80000000000001        2.7837000000000001E-002  -6.2670000000000000E-003  
   113.70000000000000       0.10480000000000000       -2.5715999999999999E-002  
   37.030000000000001       0.28306199999999998       -7.0924000000000001E-002  
   13.270000000000000       0.44871899999999998      -0.16541100000000000       
   5.0250000000000004       0.27095200000000003      -0.11695500000000000       
   1.0129999999999999        1.5458000000000000E-002  0.55736799999999997       
  0.30230000000000001       -2.5850000000000001E-003  0.57275900000000002       
    4    2                                                                      
   17.699999999999999        4.3018000000000001E-002   0.0000000000000000       
   3.8540000000000001       0.22891300000000001        0.0000000000000000       
   1.0460000000000000       0.50872799999999996        0.0000000000000000       
  0.27529999999999999       0.46053100000000002        1.0000000000000000       

Running with 32 threads/proc

    1    1                                                                      
   1.1850000000000001        1.0000000000000000                                 
          8.00000000    1    3    1    1    1                                   
O #7  -0.000000000000000  -0.000000000000000   5.645614650699281                
    9    3                                                                      
   11720.000000000000        7.1000000000000002E-004  -1.6000000000000001E-004  
   1759.0000000000000        5.4700000000000000E-003  -1.2630000000000000E-003  
   400.80000000000001        2.7837000000000001E-002  -6.2670000000000000E-003  
   113.70000000000000       0.10480000000000000       -2.5715999999999999E-002  
   37.030000000000001       0.28306199999999998       -7.0924000000000001E-002  
   13.270000000000000       0.44871899999999998      -0.16541100000000000       
   5.0250000000000004       0.27095200000000003      -0.11695500000000000       
   1.0129999999999999        1.5458000000000000E-002  0.55736799999999997       
  0.30230000000000001       -2.5850000000000001E-003  0.57275900000000002       
    4    2                                                                      
   17.699999999999999        4.3018000000000001E-002   0.0000000000000000       
   3.8540000000000001       0.22891300000000001        0.0000000000000000       
   1.0460000000000000       0.50872799999999996        0.0000000000000000       
  0.27529999999999999       0.46053100000000002        1.0000000000000000       
    1    1                                                                      
   1.1850000000000001        1.0000000000000000                                 
FINISH                                                                          

********************************************************************************
 ONE- AND TWO-ELECTRON INTEGRALS OVER SYMMETRY-ADAPTED AOS ARE CALCULATED.

  SPHERICAL HARMONICS ARE USED.
  
  INTEGRALS LESS THAN  0.10E-13 ARE NEGLECTED.

  NUCLEAR REPULSION ENERGY :  794.3241699683 A.U.
  @MOLECU-I, ONE ELECTRON INTEGRALS (CPU/WALL):        0.83/       0.14 SECONDS.
  @TWOEL-I,    4283576 INTEGRALS OF SYMMETRY TYPE  I I I I
  @TWOEL-I,   13298506 INTEGRALS OF SYMMETRY TYPE  I J I J
  @TWOEL-I,    6960296 INTEGRALS OF SYMMETRY TYPE  I I J J
  @TWOEL-I,    8577160 INTEGRALS OF SYMMETRY TYPE  I J K L
  @TWOEL-I, TOTAL NUMBER OF 2-E INTEGRALS   33119538.
  @MOLECU-I, TWO ELECTRON INTEGRALS (CPU/WALL):       52.03/      17.24 SECONDS.
 @CHECKOUT-I, Total execution time (CPU/WALL):       52.96/      17.39 seconds.
--executable xvmol finished with status     0 in       17.41 seconds (walltime).
 --invoking executable--
/opt/cfour/2.1/bin/xvmol2ja
 @GETMEM-I,  Allocated   30517 MB of main memory.
 @CHECKOUT-I, Total execution time (CPU/WALL):        0.24/       0.01 seconds.
--executable xvmol2ja finished with status     0 in        0.03 seconds (walltime).
 --invoking executable--
/opt/cfour/2.1/bin/xvscf
  There are  183 functions in the AO basis.

  There are 4 irreducible representations.

       Irrep        # of functions
         1                 73
         2                 44
         3                 44
         4                 22


  Parameters for SCF calculation: 
        SCF reference function:  RHF  
  Maximum number of iterations:  500
     Full symmetry point group: D3h 
     Computational point group: C2v 
        Initial density matrix: MOREAD                 
     SCF convergence tolerance: 10**(-10)
  DIIS convergence acceleration:  ON
          Latest start for DIIS:   8
                     DIIS order:   6

  Memory information:    1346178 words required.
  Fock matrices are constructed from AO integral file.
 @GETMEM-I,  Allocated      10 MB of main memory.
  Initialization and symmetry analysis required      0.013 seconds.

  @INITGES-I, Occupancies from core Hamiltonian:

          Alpha population by irrep:  23   10   11    4
           Beta population by irrep:  23   10   11    4


 total no. of electrons in initial guess :   0.0000000000000000     
  --------------------------------------------------------------------
  Iteration         Total Energy            Largest Density Difference
  --------------------------------------------------------------------
       0           794.324169968254751              0.0000000000D+00
   current occupation vector 
    23 10 11  4
    23 10 11  4
       1         -1388.920728077110653              0.9505664645D+03
   current occupation vector 
    23 10 11  4
    23 10 11  4
       2         -1256.093590415159724              0.9134290242D+03
   current occupation vector 
    21 12 11  4
    21 12 11  4
       3         -1384.980552247458490              0.9683702982D+03
   current occupation vector 
    23 11 11  3
    23 11 11  3
       4         -1253.997169047741409              0.9728549551D+03
   current occupation vector 
    22 11 11  4
    22 11 11  4
       5         -1383.582580278073237              0.9946327999D+03
   current occupation vector 
    23 11 11  3
    23 11 11  3
       6         -1251.312683003712664              0.9963916493D+03
   current occupation vector 
    23 11 10  4
    23 11 10  4
       7         -1383.670815039581157              0.1054079549D+04
   current occupation vector 
    23 11 11  3
    23 11 11  3
       8         -1251.266071466603535              0.1054277972D+04
   current occupation vector 
    23 11 10  4
    23 11 10  4
       9         -1690.202118206814703              0.1415608018D+03
   current occupation vector 
    22 11 12  3
    22 11 12  3
      10         -1803.814749722133456              0.1204422086D+03
   current occupation vector 
    23 11 11  3
    23 11 11  3
      11         -1824.734979778326306              0.2858654619D+02
   current occupation vector 
    23 11 11  3
    23 11 11  3
      12         -1822.734824312879027              0.2711245624D+01
   current occupation vector 
    23 11 11  3
    23 11 11  3
      13         -1825.904016273837442              0.1804631796D+01
   current occupation vector 
    23 11 11  3
    23 11 11  3
      14         -1825.706054066026354              0.1630575232D+01
   current occupation vector 
    23 11 11  3
    23 11 11  3
      15         -1825.859481318046619              0.1636135556D+00
   current occupation vector 
    23 11 11  3
    23 11 11  3
      16         -1825.980055274183542              0.5882962545D+00
   current occupation vector 
    23 11 11  3
    23 11 11  3
      17         -1825.984778237814226              0.7764612210D-01
   current occupation vector 
    23 11 11  3
    23 11 11  3
      18         -1825.985879767240021              0.6305859234D-01
   current occupation vector 
    23 11 11  3
    23 11 11  3
      19         -1825.986861683011739              0.9503901716D-01
   current occupation vector 
    23 11 11  3
    23 11 11  3
      20         -1825.987259284018819              0.8017372553D-01
   current occupation vector 
    23 11 11  3
    23 11 11  3
      21         -1825.987396717705451              0.4687712712D-01
   current occupation vector 
    23 11 11  3
    23 11 11  3
      22         -1825.987407287347196              0.1267614832D-01
   current occupation vector 
    23 11 11  3
    23 11 11  3
      23         -1825.987408799820969              0.4082269764D-02
   current occupation vector 
    23 11 11  3
    23 11 11  3
      24         -1825.987409940000362              0.4277944594D-02
   current occupation vector 
    23 11 11  3
    23 11 11  3
      25         -1825.987410175906916              0.1310442209D-02
   current occupation vector 
    23 11 11  3
    23 11 11  3
      26         -1825.987410495127733              0.2852591781D-02
   current occupation vector 
    23 11 11  3
    23 11 11  3
      27         -1825.987410697809082              0.2720224037D-02
   current occupation vector 
    23 11 11  3
    23 11 11  3
      28         -1825.987410888264094              0.4054275709D-02
   current occupation vector 
    23 11 11  3
    23 11 11  3
      29         -1825.987410953518975              0.2092793430D-02
   current occupation vector 
    23 11 11  3
    23 11 11  3
      30         -1825.987411016554233              0.2668496983D-02
   current occupation vector 
    23 11 11  3
    23 11 11  3
      31         -1825.987411042827262              0.1386475720D-02
   current occupation vector 
    23 11 11  3
    23 11 11  3
      32         -1825.987411092813545              0.3572086018D-02
   current occupation vector 
    23 11 11  3
    23 11 11  3
      33         -1825.987411100089048              0.8040659894D-03
   current occupation vector 
    23 11 11  3
    23 11 11  3
      34         -1825.987411105472347              0.1184120687D-02
   current occupation vector 
    23 11 11  3
    23 11 11  3
      35         -1825.987411106267700              0.3485719726D-03
   current occupation vector 
    23 11 11  3
    23 11 11  3
      36         -1825.987411106480977              0.1204931897D-03
   current occupation vector 
    23 11 11  3
    23 11 11  3
      37         -1825.987411106565105              0.6727521958D-04
   current occupation vector 
    23 11 11  3
    23 11 11  3
      38         -1825.987411106583750              0.3361891208D-04
   current occupation vector 
    23 11 11  3
    23 11 11  3
      39         -1825.987411106591480              0.1625681555D-04
   current occupation vector 
    23 11 11  3
    23 11 11  3
      40         -1825.987411106646960              0.2989534305D-04
   current occupation vector 
    23 11 11  3
    23 11 11  3
      41         -1825.987411106629224              0.1396657617D-04
   current occupation vector 
    23 11 11  3
    23 11 11  3
      42         -1825.987411106657873              0.3758794684D-04
   current occupation vector 
    23 11 11  3
    23 11 11  3
      43         -1825.987411106668333              0.1666597577D-04
   current occupation vector 
    23 11 11  3
    23 11 11  3
      44         -1825.987411106664695              0.2154709014D-04
   current occupation vector 
    23 11 11  3
    23 11 11  3
      45         -1825.987411106675609              0.1943423930D-04
   current occupation vector 
    23 11 11  3
    23 11 11  3
      46         -1825.987411106661966              0.2137117952D-04
   current occupation vector 
    23 11 11  3
    23 11 11  3
      47         -1825.987411106680156              0.8082774951D-05
   current occupation vector 
    23 11 11  3
    23 11 11  3
      48         -1825.987411106671061              0.2267557600D-05
   current occupation vector 
    23 11 11  3
    23 11 11  3
      49         -1825.987411106666059              0.5527910655D-05
   current occupation vector 
    23 11 11  3
    23 11 11  3
      50         -1825.987411106656964              0.7550857832D-06
   current occupation vector 
    23 11 11  3
    23 11 11  3
      51         -1825.987411106662421              0.2588742868D-05
   current occupation vector 
    23 11 11  3
    23 11 11  3
      52         -1825.987411106661511              0.3933183752D-06
   current occupation vector 
    23 11 11  3
    23 11 11  3
      53         -1825.987411106650598              0.1464279192D-05
   current occupation vector 
    23 11 11  3
    23 11 11  3
      54         -1825.987411106669697              0.2052168531D-05
   current occupation vector 
    23 11 11  3
    23 11 11  3
      55         -1825.987411106672880              0.1293876004D-05
   current occupation vector 
    23 11 11  3
    23 11 11  3
      56         -1825.987411106656054              0.3870024505D-06
   current occupation vector 
    23 11 11  3
    23 11 11  3
      57         -1825.987411106665149              0.5871670927D-06
   current occupation vector 
    23 11 11  3
    23 11 11  3
      58         -1825.987411106670606              0.2129664978D-07
   current occupation vector 
    23 11 11  3
    23 11 11  3
      59         -1825.987411106655600              0.4275766017D-06
   current occupation vector 
    23 11 11  3
    23 11 11  3
      60         -1825.987411106645595              0.2097204721D-07
   current occupation vector 
    23 11 11  3
    23 11 11  3
      61         -1825.987411106662876              0.9138060975D-07
   current occupation vector 
    23 11 11  3
    23 11 11  3
      62         -1825.987411106667423              0.6477301007D-07
   current occupation vector 
    23 11 11  3
    23 11 11  3
      63         -1825.987411106665604              0.6577616496D-07
   current occupation vector 
    23 11 11  3
    23 11 11  3
      64         -1825.987411106639684              0.9456363603D-07
   current occupation vector 
    23 11 11  3
    23 11 11  3
      65         -1825.987411106659692              0.3982739294D-07
   current occupation vector 
    23 11 11  3
    23 11 11  3
      66         -1825.987411106644231              0.2967187385D-08
   current occupation vector 
    23 11 11  3
    23 11 11  3
      67         -1825.987411106662421              0.9713135185D-08
   current occupation vector 
    23 11 11  3
    23 11 11  3
      68         -1825.987411106678337              0.2746318728D-08
   current occupation vector 
    23 11 11  3
    23 11 11  3
      69         -1825.987411106663330              0.6698700261D-08
   current occupation vector 
    23 11 11  3
    23 11 11  3
      70         -1825.987411106661057              0.1343396505D-08
   current occupation vector 
    23 11 11  3
    23 11 11  3
      71         -1825.987411106661511              0.1250452186D-08
   current occupation vector 
    23 11 11  3
    23 11 11  3
      72         -1825.987411106655145              0.6147020670D-09
   current occupation vector 
    23 11 11  3
    23 11 11  3
      73         -1825.987411106645595              0.4808597964D-09
   current occupation vector 
    23 11 11  3
    23 11 11  3
      74         -1825.987411106657873              0.4332223469D-09
   current occupation vector 
    23 11 11  3
    23 11 11  3
      75         -1825.987411106649233              0.7471809838D-09
   current occupation vector 
    23 11 11  3
    23 11 11  3
      76         -1825.987411106651962              0.8938361162D-09
   current occupation vector 
    23 11 11  3
    23 11 11  3
      77         -1825.987411106648779              0.7729639151D-09
   current occupation vector 
    23 11 11  3
    23 11 11  3
      78         -1825.987411106658783              0.2541575839D-09
   current occupation vector 
    23 11 11  3
    23 11 11  3
      79         -1825.987411106649688              0.9502958420D-09
   current occupation vector 
    23 11 11  3
    23 11 11  3
      80         -1825.987411106638319              0.1278173123D-08
   current occupation vector 
    23 11 11  3
    23 11 11  3
      81         -1825.987411106661966              0.3596536402D-09
   current occupation vector 
    23 11 11  3
    23 11 11  3

  SCF has converged.

 Density matrix saved to file den.dat
 total electron number:   96.000000000000384     
     E(SCF)=     -1825.987411106661966              0.9686407232D-10


  Final occupancies:

     Alpha population by irrep:  23   11   11    3
      Beta population by irrep:  23   11   11    3


  Eigenvector printing suppressed.

 @PUTMOS-I, Writing converged MOs to NEWMOS. 
 @PUTMOS-I, Symmetry   1 Full Blocks 18 Partial Blocksize   1
 @PUTMOS-I, Symmetry   2 Full Blocks 11 Partial Blocksize   0
 @PUTMOS-I, Symmetry   3 Full Blocks 11 Partial Blocksize   0
 @PUTMOS-I, Symmetry   4 Full Blocks  5 Partial Blocksize   2
 @PUTFOCK-I, Writing converged Fock matrix to NEWFOCK. 
 @PUTFOCK-I, Symmetry   1 Full Blocks 18 Partial Blocksize   1
 @PUTFOCK-I, Symmetry   2 Full Blocks 11 Partial Blocksize   0
 @PUTFOCK-I, Symmetry   3 Full Blocks 11 Partial Blocksize   0
 @PUTFOCK-I, Symmetry   4 Full Blocks  5 Partial Blocksize   2



  ORBITAL EIGENVALUES (ALPHA)  (1H = 27.2113834 eV)

       MO #        E(hartree)               E(eV)           FULLSYM    COMPSYM
       ----   --------------------   --------------------   -------   ---------
    1     1        -261.3755073404       -7112.3891416086    A1'         A1 (1)
    2     2         -31.9486350229        -869.3665567150    A1'         A1 (1)
    3   118         -27.4346435329        -746.5346036156    A2''        B2 (3)
    4     3         -27.4242106587        -746.2507106767     E'         A1 (1)
    5    74         -27.4242106587        -746.2507106766     E'         B1 (2)
    6   119         -20.6897490808        -562.9966946877     E          B2 (3)
    7     4         -20.6897480707        -562.9966672002     E          A1 (1)
    8    75         -20.6650483504        -562.3245536420                B1 (2)
    9     5         -20.6650483504        -562.3245536416                A1 (1)
   10     6         -20.6650478151        -562.3245390773                A1 (1)
   11   120         -11.4136560174        -310.5813698846     E          B2 (3)
   12     7         -11.4136540595        -310.5813166081     E          A1 (1)
   13    76         -11.3979047469        -310.1527560238                B1 (2)
   14     8         -11.3979047469        -310.1527560235                A1 (1)
   15     9         -11.3979046788        -310.1527541728                A1 (1)
   16    10          -4.1282002643        -112.3340401443    A1'         A1 (1)
   17   121          -2.7175145376         -73.9473299764    A2''        B2 (3)
   18    11          -2.7046383068         -73.5969499245     E'         A1 (1)
   19    77          -2.7046383068         -73.5969499244     E'         B1 (2)
   20    12          -1.5282770058         -41.5865315468    A1'         A1 (1)
   21   122          -1.5281780366         -41.5838384562    A2''        B2 (3)
   22    13          -1.5046423181         -40.9433989978    A1'         A1 (1)
   23    78          -1.5044699072         -40.9387074591     E'         B1 (2)
   24    14          -1.5044699072         -40.9387074587     E'         A1 (1)
   25    15          -0.8645320753         -23.5251137616    A1'         A1 (1)
   26   123          -0.8280255523         -22.5317207679    A2''        B2 (3)
   27    79          -0.8077997918         -21.9813498448     E'         B1 (2)
   28    16          -0.8077997918         -21.9813498444     E'         A1 (1)
   29    17          -0.8075762920         -21.9752681056    A1'         A1 (1)
   30    18          -0.7283537012         -19.8195118134    A1'         A1 (1)
   31   162          -0.6681160696         -18.1803625263     E''        A2 (4)
   32   124          -0.6681160696         -18.1803625262     E''        B2 (3)
   33   125          -0.6664192438         -18.1341895474    A2''        B2 (3)
   34    80          -0.6648564868         -18.0916647692     E'         B1 (2)
   35    19          -0.6648564868         -18.0916647691     E'         A1 (1)
   36    20          -0.6427823863         -17.4909979553     E'         A1 (1)
   37    81          -0.6427823862         -17.4909979550     E'         B1 (2)
   38    82          -0.6319158498         -17.1953044648    A2'         B1 (2)
   39   163          -0.6254837278         -17.0202775263     E''        A2 (4)
   40   126          -0.6254837277         -17.0202775260     E''        B2 (3)
   41    83          -0.6218497255         -16.9213912985     E'         B1 (2)
   42    21          -0.6218497255         -16.9213912985     E'         A1 (1)
   43    22          -0.6041853528         -16.4407192809    A1'         A1 (1)
   44   127          -0.6006491038         -16.3444930536    A2''        B2 (3)
   45   128          -0.4813171617         -13.0973058230     E''        B2 (3)
   46   164          -0.4813171616         -13.0973058226     E''        A2 (4)
   47    23          -0.3438166194          -9.3557258492     E'         A1 (1)
   48    84          -0.3438166193          -9.3557258476     E'         B1 (2)
  +++++++++++++++++++++++++++++++++++++++++++++++++++++++++++++++++++++++++++++
   49    24           0.0819438651           2.2298059315    A1'         A1 (1)
   50   165           0.0916296423           2.4933693273     E''        A2 (4)
   51   129           0.0916296423           2.4933693274     E''        B2 (3)
   52   130           0.1045467967           2.8448629682    A2''        B2 (3)
   53    25           0.1100105531           2.9935393397     E'         A1 (1)
   54    85           0.1100105532           2.9935393401     E'         B1 (2)
   55    86           0.1336205734           3.6360006538     E'         B1 (2)
   56    26           0.1336205734           3.6360006538     E'         A1 (1)
   57    87           0.1380669552           3.7569928534    A2'         B1 (2)
   58   131           0.1482083475           4.0329541664    A2''        B2 (3)
   59    27           0.1518514716           4.1320886125     E'         A1 (1)
   60    88           0.1518514716           4.1320886132     E'         B1 (2)
   61   166           0.2123079043           5.7771917831     E''        A2 (4)
   62   132           0.2123079043           5.7771917833     E''        B2 (3)
   63    28           0.2708733223           7.3708378256    A1'         A1 (1)
   64    29           0.3474592986           9.4548481892    A1'         A1 (1)
   65    30           0.3740655423          10.1788408876     E'         A1 (1)
   66    89           0.3740655423          10.1788408880     E'         B1 (2)
   67   133           0.4339319003          11.8078873099     E''        B2 (3)
   68   167           0.4339319004          11.8078873100     E''        A2 (4)
   69   134           0.4767491346          12.9730034877    A2''        B2 (3)
   70    31           0.4859822399          13.2242490568    A1'         A1 (1)
   71    32           0.5358835341          14.5821323035    A1'         A1 (1)
   72    33           0.5404184593          14.7055338923     E'         A1 (1)
   73    90           0.5404184593          14.7055338932     E'         B1 (2)
   74   135           0.6522923366          17.7497768610    A2''        B2 (3)
   75    34           0.6763114084          18.4033690315     E'         A1 (1)
   76    91           0.6763114084          18.4033690316     E'         B1 (2)
   77    35           0.6965783677          18.9548610305    A1'         A1 (1)
   78   168           0.7005462409          19.0628323494     E''        A2 (4)
   79   136           0.7005462409          19.0628323497     E''        B2 (3)
   80    36           0.7357449303          20.0206373827     E'         A1 (1)
   81    92           0.7357449303          20.0206373827     E'         B1 (2)
   82    93           0.7708312036          20.9753834188    A2'         B1 (2)
   83   137           0.7782360221          21.1768787717    A2''        B2 (3)
   84    37           0.8389522003          22.8290499766    A1'         A1 (1)
   85    38           0.8614569074          23.4414341901     E'         A1 (1)
   86    94           0.8614569074          23.4414341903     E'         B1 (2)
   87   169           0.8715676140          23.7165605029     E''        A2 (4)
   88   138           0.8715676140          23.7165605030     E''        B2 (3)
   89   139           0.9008066225          24.5121943728    A2''        B2 (3)
   90    39           0.9263449563          25.2071277656     E'         A1 (1)
   91    95           0.9263449563          25.2071277659     E'         B1 (2)
   92    40           0.9411947866          25.6112121930    A1'         A1 (1)
   93    41           0.9910482479          26.9677938406    A1'         A1 (1)
   94    96           1.0143566507          27.6020477263     E'         B1 (2)
   95    42           1.0143566507          27.6020477263     E'         A1 (1)
   96   140           1.0173996042          27.6848507019    A2''        B2 (3)
   97    43           1.0644240525          28.9644509934    A1'         A1 (1)
   98    44           1.2180589116          33.1450680462     E'         A1 (1)
   99    97           1.2180589116          33.1450680464     E'         B1 (2)
  100   170           1.2277092706          33.4076676651     E''        A2 (4)
  101   141           1.2277092706          33.4076676652     E''        B2 (3)
  102   142           1.2470349147          33.9335451760    A2''        B2 (3)
  103   171           1.2511444477          34.0453712547     E''        A2 (4)
  104   143           1.2511444477          34.0453712548     E''        B2 (3)
  105    45           1.2636741681          34.3863222808     E'         A1 (1)
  106    98           1.2636741681          34.3863222808     E'         B1 (2)
  107    99           1.2882723826          35.0556737257    A2'         B1 (2)
  108   172           1.3154724729          35.7958258122    A1''        A2 (4)
  109    46           1.3247883128          36.0493227025     E'         A1 (1)
  110   100           1.3247883128          36.0493227026     E'         B1 (2)
  111    47           1.3349870293          36.3268438886    A1'         A1 (1)
  112   173           1.3470161815          36.6541737597     E''        A2 (4)
  113   144           1.3470161815          36.6541737597     E''        B2 (3)
  114   145           1.3875477965          37.7570950762     E''        B2 (3)
  115   174           1.3875477965          37.7570950762     E''        A2 (4)
  116   101           1.4046110414          38.2214095749     E'         B1 (2)
  117    48           1.4046110414          38.2214095750     E'         A1 (1)
  118   102           1.4462651738          39.3548761437    A2'         B1 (2)
  119   146           1.4518230850          39.5061145936    A2''        B2 (3)
  120    49           1.4861100157          40.4391094108     E'         A1 (1)
  121   103           1.4861100157          40.4391094109     E'         B1 (2)
  122   147           1.5016217033          40.8612038905     E''        B2 (3)
  123   175           1.5016217033          40.8612038906     E''        A2 (4)
  124    50           1.5802676536          43.0012689958    A1'         A1 (1)
  125    51           1.5898997945          43.2633728755     E'         A1 (1)
  126   104           1.5898997946          43.2633728778     E'         B1 (2)
  127   148           1.6131092629          43.8949346199    A2''        B2 (3)
  128   176           1.7016878991          46.3052818500     E''        A2 (4)
  129   149           1.7016878991          46.3052818501     E''        B2 (3)
  130    52           1.7230200449          46.8857590482     E'         A1 (1)
  131   105           1.7230200449          46.8857590487     E'         B1 (2)
  132    53           1.7577868362          47.8318115355    A1'         A1 (1)
  133   150           1.8191846827          49.5025318752    A2''        B2 (3)
  134    54           1.8396878828          50.0604523163     E'         A1 (1)
  135   106           1.8396878828          50.0604523166     E'         B1 (2)
  136    55           1.9603017423          53.3425222884    A1'         A1 (1)
  137    56           2.1136825290          57.5162256829    A1'         A1 (1)
  138   151           2.1311837100          57.9924570296    A2''        B2 (3)
  139   107           2.1484148950          58.4613414101     E'         B1 (2)
  140    57           2.1484148950          58.4613414103     E'         A1 (1)
  141    58           2.1762768281          59.2195031545    A1'         A1 (1)
  142   152           2.2995183687          62.5730759671     E''        B2 (3)
  143   177           2.2995183687          62.5730759671     E''        A2 (4)
  144    59           2.4845738220          67.6086908561    A1'         A1 (1)
  145    60           2.5095547178          68.2884555897     E'         A1 (1)
  146   108           2.5095547178          68.2884555899     E'         B1 (2)
  147   153           2.8412564071          77.3145174304    A2''        B2 (3)
  148    61           2.8921906071          78.7005074765    A1'         A1 (1)
  149   178           2.9194810493          79.4431181616     E''        A2 (4)
  150   154           2.9194810493          79.4431181616     E''        B2 (3)
  151   109           2.9215523250          79.4994804400     E'         B1 (2)
  152    62           2.9215523250          79.4994804400     E'         A1 (1)
  153   179           2.9348372286          79.8609810438    A1''        A2 (4)
  154   110           2.9388845002          79.9711129035     E'         B1 (2)
  155    63           2.9388845002          79.9711129039     E'         A1 (1)
  156   155           2.9401669695          80.0060106668     E''        B2 (3)
  157   180           2.9401669695          80.0060106672     E''        A2 (4)
  158    64           2.9555144376          80.4236365056    A1'         A1 (1)
  159   111           3.0731219871          83.6239006257     E'         B1 (2)
  160    65           3.0731219871          83.6239006258     E'         A1 (1)
  161   112           3.2291433939          87.8694589451    A2'         B1 (2)
  162   181           3.2975798254          89.7317089219     E''        A2 (4)
  163   156           3.2975798254          89.7317089221     E''        B2 (3)
  164    66           3.4706779390          94.4419480570     E'         A1 (1)
  165   113           3.4706779390          94.4419480571     E'         B1 (2)
  166   157           3.4865147805          94.8728904209    A2''        B2 (3)
  167   158           3.4901925963          94.9729688786     E''        B2 (3)
  168   182           3.4901925963          94.9729688786     E''        A2 (4)
  169    67           3.5687324603          97.1101472296     E'         A1 (1)
  170   114           3.5687324603          97.1101472298     E'         B1 (2)
  171    68           3.5772174742          97.3410361962    A1'         A1 (1)
  172   183           3.7794382376         102.8437429206     E''        A2 (4)
  173   159           3.7794382376         102.8437429207     E''        B2 (3)
  174    69           3.8378361080         104.4328297621    A1'         A1 (1)
  175   160           3.8436699441         104.5915765115    A2''        B2 (3)
  176   115           3.8692446520         105.2874996949     E'         B1 (2)
  177    70           3.8692446520         105.2874996952     E'         A1 (1)
  178   116           3.9568611994         107.6716671577    A2'         B1 (2)
  179    71           3.9943222821         108.6910350411    A1'         A1 (1)
  180   117           4.2029210166         114.3672951837     E'         B1 (2)
  181    72           4.2029210167         114.3672951842     E'         A1 (1)
  182   161           4.4685759837         121.5961343432    A2''        B2 (3)
  183    73           4.5211205787         123.0259454648    A1'         A1 (1)


  VSCF finished.

 @CHECKOUT-I, Total execution time (CPU/WALL):      257.89/      17.24 seconds.
--executable xvscf finished with status     0 in       17.25 seconds (walltime).
 --invoking executable--
/opt/cfour/2.1/bin/xvtran
 @GETMEM-I,  Allocated   30517 MB of main memory.
  Full RHF integral transformation
  The following  19 MOs will be dropped:
    1  2  3  4  5  6  7  8  9 10 11 24 25 26 27 35 36 37 38
  There are 164 active molecular orbitals.
  Transformation of IIII integrals :
  1 pass through the AO integral file was required.
     4283576 AO integrals were read.
     2613413 MO integrals were written to HF2.
  Transformation of IIJJ integrals :
  1 pass through the AO integral file was required.
     6960296 AO integrals were read.
     4784319 MO integrals were written to HF2.
  Transformation of IJIJ integrals :
  1 pass through the AO integral file was required.
    13298506 AO integrals were read.
     9139760 MO integrals were written to HF2.
  Transformation of IJKL integrals :
  1 pass through the AO integral file was required.
     8577160 AO integrals were read.
     6547117 MO integrals were written to HF2.
  Summary of active molecular orbitals: 
------------------------------------------------------------------------

  Index      Eigenvalue    Symmetry    Index      Eigenvalue    Symmetry
------------------------------------------------------------------------
     1        -1.5282770        1        83         0.1518515        2
     2        -1.5046423        1        84         0.3740655        2
     3        -1.5044699        1        85         0.5404185        2
     4        -0.8645321        1        86         0.6763114        2
     5        -0.8077998        1        87         0.7357449        2
     6        -0.8075763        1        88         0.7708312        2
     7        -0.7283537        1        89         0.8614569        2
     8        -0.6648565        1        90         0.9263450        2
     9        -0.6427824        1        91         1.0143567        2
    10        -0.6218497        1        92         1.2180589        2
    11        -0.6041854        1        93         1.2636742        2
    12        -0.3438166        1        94         1.2882724        2
    13        -1.5044699        2        95         1.3247883        2
    14        -0.8077998        2        96         1.4046110        2
    15        -0.6648565        2        97         1.4462652        2
    16        -0.6427824        2        98         1.4861100        2
    17        -0.6319158        2        99         1.5898998        2
    18        -0.6218497        2       100         1.7230200        2
    19        -0.3438166        2       101         1.8396879        2
    20        -1.5281780        3       102         2.1484149        2
    21        -0.8280256        3       103         2.5095547        2
    22        -0.6681161        3       104         2.9215523        2
    23        -0.6664192        3       105         2.9388845        2
    24        -0.6254837        3       106         3.0731220        2
    25        -0.6006491        3       107         3.2291434        2
    26        -0.4813172        3       108         3.4706779        2
    27        -0.6681161        4       109         3.5687325        2
    28        -0.6254837        4       110         3.8692447        2
    29        -0.4813172        4       111         3.9568612        2
    30         0.0819439        1       112         4.2029210        2
    31         0.1100106        1       113         0.0916296        3
    32         0.1336206        1       114         0.1045468        3
    33         0.1518515        1       115         0.1482083        3
    34         0.2708733        1       116         0.2123079        3
    35         0.3474593        1       117         0.4339319        3
    36         0.3740655        1       118         0.4767491        3
    37         0.4859822        1       119         0.6522923        3
    38         0.5358835        1       120         0.7005462        3
    39         0.5404185        1       121         0.7782360        3
    40         0.6763114        1       122         0.8715676        3
    41         0.6965784        1       123         0.9008066        3
    42         0.7357449        1       124         1.0173996        3
    43         0.8389522        1       125         1.2277093        3
    44         0.8614569        1       126         1.2470349        3
    45         0.9263450        1       127         1.2511444        3
    46         0.9411948        1       128         1.3470162        3
    47         0.9910482        1       129         1.3875478        3
    48         1.0143567        1       130         1.4518231        3
    49         1.0644241        1       131         1.5016217        3
    50         1.2180589        1       132         1.6131093        3
    51         1.2636742        1       133         1.7016879        3
    52         1.3247883        1       134         1.8191847        3
    53         1.3349870        1       135         2.1311837        3
    54         1.4046110        1       136         2.2995184        3
    55         1.4861100        1       137         2.8412564        3
    56         1.5802677        1       138         2.9194810        3
    57         1.5898998        1       139         2.9401670        3
    58         1.7230200        1       140         3.2975798        3
    59         1.7577868        1       141         3.4865148        3
    60         1.8396879        1       142         3.4901926        3
    61         1.9603017        1       143         3.7794382        3
    62         2.1136825        1       144         3.8436699        3
    63         2.1484149        1       145         4.4685760        3
    64         2.1762768        1       146         0.0916296        4
    65         2.4845738        1       147         0.2123079        4
    66         2.5095547        1       148         0.4339319        4
    67         2.8921906        1       149         0.7005462        4
    68         2.9215523        1       150         0.8715676        4
    69         2.9388845        1       151         1.2277093        4
    70         2.9555144        1       152         1.2511444        4
    71         3.0731220        1       153         1.3154725        4
    72         3.4706779        1       154         1.3470162        4
    73         3.5687325        1       155         1.3875478        4
    74         3.5772175        1       156         1.5016217        4
    75         3.8378361        1       157         1.7016879        4
    76         3.8692447        1       158         2.2995184        4
    77         3.9943223        1       159         2.9194810        4
    78         4.2029210        1       160         2.9348372        4
    79         4.5211206        1       161         2.9401670        4
    80         0.1100106        2       162         3.2975798        4
    81         0.1336206        2       163         3.4901926        4
    82         0.1380670        2       164         3.7794382        4
------------------------------------------------------------------------
[...]
         2                P              0.64131441
         6                P              0.64131441
         2                P             -0.09628939
         6                P             -0.09628939
         2                D              0.00589144
         6                D              0.00589144
         2                D              0.05820507
         6                D              0.05820507
         2                D              0.00078342
         6                D              0.00078342
         2                D              0.02199893
         6                D              0.02199893
         2                D              0.05820507
         6                D              0.05820507
         2                D              0.00589144
         6                D              0.00589144
         3                S              2.00294843
         5                S              2.00294843
         3                S              1.67257094
         5                S              1.67257094
         3                S             -0.15340983
         5                S             -0.15340983
         3                P              1.07175257
         5                P              1.07175257
         3                P             -0.21017732
         5                P             -0.21017732
         3                P              0.62612042
         5                P              0.62612042
         3                P             -0.07616077
         5                P             -0.07616077
         3                P              0.82324295
         5                P              0.82324295
         3                P             -0.13696019
         5                P             -0.13696019
         3                D              0.03373671
         5                D              0.03373671
         3                D              0.04175821
         5                D              0.04175821
         3                D              0.03869679
         5                D              0.03869679
         3                D              0.00648043
         5                D              0.00648043
         3                D              0.01418601
         5                D              0.01418601
         3                D              0.02399497
         5                D              0.02399497
         4                S              2.00294843
         4                S              1.67257094
         4                S             -0.15340983
         4                P              0.69898814
         4                P             -0.10035163
         4                P              0.62612042
         4                P             -0.07616077
         4                P              1.19600737
         4                P             -0.24678588
         4                D              0.00727810
         4                D              0.00039991
         4                D              0.06238879
         4                D              0.00648043
         4                D              0.05554432
         4                D              0.02676158
         7                S              2.00199264
         8                S              2.00199264
         7                S              1.85365025
         8                S              1.85365025
         7                S             -0.08297753
         8                S             -0.08297753
         7                P              1.50446491
         8                P              1.50446491
         7                P             -0.02189911
         8                P             -0.02189911
         7                P              1.53139785
         8                P              1.53139785
         7                P             -0.15908400
         8                P             -0.15908400
         7                P              1.50446491
         8                P              1.50446491
         7                P             -0.02189911
         8                P             -0.02189911
         7                D              0.00175894
         8                D              0.00175894
         7                D              0.00732821
         8                D              0.00732821
         7                D              0.00000027
         8                D              0.00000027
         7                D              0.00703521
         8                D              0.00703521
         7                D              0.00732821
         8                D              0.00732821
         7                D              0.00175894
         8                D              0.00175894
         9                S              2.00200582
        11                S              2.00200582
         9                S              1.84892723
        11                S              1.84892723
         9                S             -0.08015945
        11                S             -0.08015945
         9                P              1.53268723
        11                P              1.53268723
         9                P             -0.11877458
        11                P             -0.11877458
         9                P              1.46754014
        11                P              1.46754014
         9                P             -0.01713422
        11                P             -0.01713422
         9                P              1.54687946
        11                P              1.54687946
         9                P             -0.04979317
        11                P             -0.04979317
         9                D              0.00529905
        11                D              0.00529905
         9                D              0.00549736
        11                D              0.00549736
         9                D              0.00761062
        11                D              0.00761062
         9                D              0.00171576
        11                D              0.00171576
         9                D              0.00183251
        11                D              0.00183251
         9                D              0.00270532
        11                D              0.00270532
        10                S              2.00200582
        10                S              1.84892723
        10                S             -0.08015945
        10                P              1.55397557
        10                P             -0.01530246
        10                P              1.46754014
        10                P             -0.01713422
        10                P              1.52559112
        10                P             -0.15326529
        10                D              0.00175655
        10                D              0.00000009
        10                D              0.00691442
        10                D              0.00171576
        10                D              0.00732978
        10                D              0.00694401
 -------------------------------------------------------
  Population analysis by atoms (atomic charges).
 -------------------------------------------------------
     Z-matrix
      Center          Function          Population
 -------------------------------------------------------
         1                              26.27340435
         2                               5.82454818
         6                               5.82454818
         3                               5.77878031
         5                               5.77878031
         4                               5.77878031
         7                               8.13532058
         8                               8.13532058
         9                               8.15683907
        11                               8.15683907
        10                               8.15683907
 -------------------------------------------------------

  Mulliken population analysis of CCSD(T) density.
   Total density is analyzed.

  Population analysis by orbitals.
 -------------------------------------------------------
     Z-matrix
      Center          Function          Population
 -------------------------------------------------------
         1                S              1.99998891
         1                S              1.99977476
         1                S              2.02199120
         1                S              0.40787065
         1                S              0.03484959
         1                S             -0.04516495
         1                P              1.99997914
         1                P              2.00158208
         1                P              0.10885288
         1                P              0.55020229
         1                P             -0.12926408
         1                P              1.99997296
         1                P              1.99599994
         1                P              0.85756978
         1                P             -0.94685747
         1                P              0.24072930
         1                P              1.99997914
         1                P              2.00158208
         1                P              0.10885288
         1                P              0.55020229
         1                P             -0.12926408
         1                D              0.82447486
         1                D              0.02349001
         1                D             -0.00337726
         1                D              1.52379225
         1                D              0.03926890
         1                D              0.04843139
         1                D              1.40336343
         1                D              0.03541039
         1                D              0.00779507
         1                D              0.49117256
         1                D              0.02313926
         1                D             -0.02909919
         1                D              1.52379225
         1                D              0.03926890
         1                D              0.04843139
         1                D              0.82447485
         1                D              0.02349001
         1                D             -0.00337726
         1                F              0.00148875
         1                F              0.00315714
         1                F              0.00375002
         1                F              0.00294487
         1                F              0.00344392
         1                F              0.00299382
         1                F              0.00191358
         1                F              0.00294487
         1                F              0.00315714
         1                F              0.00174082
         2                S              2.00349853
         6                S              2.00349853
         2                S              1.59985719
         6                S              1.59985719
         2                S             -0.14004385
         6                S             -0.14004385
         2                P              0.78549779
         6                P              0.78549779
         2                P             -0.11176995
         6                P             -0.11176995
         2                P              1.12791909
         6                P              1.12791909
         2                P             -0.21034547
         6                P             -0.21034547
         2                P              0.78549779
         6                P              0.78549779
         2                P             -0.11176995
         6                P             -0.11176995
         2                D              0.00811282
         6                D              0.00811282
         2                D              0.05754735
         6                D              0.05754735
         2                D              0.00427260
         6                D              0.00427260
         2                D              0.02390609
         6                D              0.02390609
         2                D              0.05754735
         6                D              0.05754735
         2                D              0.00811282
         6                D              0.00811282
         3                S              2.00347373
         5                S              2.00347373
         3                S              1.61562307
         5                S              1.61562307
         3                S             -0.17862247
         5                S             -0.17862247
         3                P              1.04862178
         5                P              1.04862178
         3                P             -0.19879830
         5                P             -0.19879830
         3                P              0.75117137
         5                P              0.75117137
         3                P             -0.09400572
         5                P             -0.09400572
         3                P              0.89354284
         5                P              0.89354284
         3                P             -0.13869311
         5                P             -0.13869311
         3                D              0.03247533
         5                D              0.03247533
         3                D              0.04247889
         5                D              0.04247889
         3                D              0.03874225
         5                D              0.03874225
         3                D              0.00884996
         5                D              0.00884996
         3                D              0.01688675
         5                D              0.01688675
         3                D              0.02307127
         5                D              0.02307127
         4                S              2.00347373
         4                S              1.61562307
         4                S             -0.17862247
         4                P              0.81600338
         4                P             -0.10864051
         4                P              0.75117137
         4                P             -0.09400572
         4                P              1.12616124
         4                P             -0.22885089
         4                D              0.00908471
         4                D              0.00409068
         4                D              0.05731130
         4                D              0.00884996
         4                D              0.05527497
         4                D              0.02789284
         7                S              2.00214626
         8                S              2.00214626
         7                S              1.86578039
         8                S              1.86578039
         7                S             -0.11955721
         8                S             -0.11955721
         7                P              1.47958846
         8                P              1.47958846
         7                P             -0.04791710
         8                P             -0.04791710
         7                P              1.51381873
         8                P              1.51381873
         7                P             -0.14642665
         8                P             -0.14642665
         7                P              1.47958846
         8                P              1.47958846
         7                P             -0.04791710
         8                P             -0.04791710
         7                D              0.00408149
         8                D              0.00408149
         7                D              0.01056539
         8                D              0.01056539
         7                D              0.00369960
         8                D              0.00369960
         7                D              0.00892675
         8                D              0.00892675
         7                D              0.01056539
         8                D              0.01056539
         7                D              0.00408149
         8                D              0.00408149
         9                S              2.00215091
        11                S              2.00215091
         9                S              1.86392047
        11                S              1.86392047
         9                S             -0.11855125
        11                S             -0.11855125
         9                P              1.51115076
        11                P              1.51115076
         9                P             -0.11792339
        11                P             -0.11792339
         9                P              1.45797632
        11                P              1.45797632
         9                P             -0.04780617
        11                P             -0.04780617
         9                P              1.50423123
        11                P              1.50423123
         9                P             -0.06761694
        11                P             -0.06761694
         9                D              0.00745346
        11                D              0.00745346
         9                D              0.00872817
        11                D              0.00872817
         9                D              0.01075991
        11                D              0.01075991
         9                D              0.00403339
        11                D              0.00403339
         9                D              0.00537894
        11                D              0.00537894
         9                D              0.00508485
        11                D              0.00508485
        10                S              2.00215091
        10                S              1.86392047
        10                S             -0.11855125
        10                P              1.50077146
        10                P             -0.04246372
        10                P              1.45797632
        10                P             -0.04780617
        10                P              1.51461052
        10                P             -0.14307661
        10                D              0.00407926
        10                D              0.00370432
        10                D              0.01040246
        10                D              0.00403339
        10                D              0.01040279
        10                D              0.00881650
 -------------------------------------------------------
  Population analysis by atoms (atomic charges).
 -------------------------------------------------------
     Z-matrix
      Center          Function          Population
 -------------------------------------------------------
         1                              26.50090606
         2                               5.88784018
         6                               5.88784018
         3                               5.86481764
         5                               5.86481764
         4                               5.86481764
         7                               8.02102435
         8                               8.02102435
         9                               8.02897065
        11                               8.02897065
        10                               8.02897065
 -------------------------------------------------------
 @CHECKOUT-I, Total execution time (CPU/WALL):        4.15/       0.30 seconds.
--executable xprops finished with status     0 in        0.32 seconds (walltime).
  The final electronic energy is     -1828.078580129011016 a.u. 
  This computation required                         1429.14 seconds (walltime).
Attempting to clean /scratch/jearias... save is False. TIME: Wed 05 Mar 2025 08:29:31 AM PST
Total of 1429 seconds elapsed for this process.
