
     Program PWSCF v.6.4 starts on  9Oct2021 at 10:57:47 

     This program is part of the open-source Quantum ESPRESSO suite
     for quantum simulation of materials; please cite
         "P. Giannozzi et al., J. Phys.:Condens. Matter 21 395502 (2009);
         "P. Giannozzi et al., J. Phys.:Condens. Matter 29 465901 (2017);
          URL http://www.quantum-espresso.org", 
     in publications or presentations arising from this work. More details at
     http://www.quantum-espresso.org/quote

     Parallel version (MPI), running on     6 processors

     MPI processes distributed on     1 nodes
     R & G space division:  proc/nbgrp/npool/nimage =       6
     Waiting for input...
     Reading input from standard input

     Current dimensions of program PWSCF are:
     Max number of different atomic species (ntypx) = 10
     Max number of k-points (npk) =  40000
     Max angular momentum in pseudopotentials (lmaxx) =  3

     Atomic positions and unit cell read from directory:
     /home/ug2018/mst/18114017/QE_sample/Co2VAl/band_structure/Co2VAl.save/

               file Co.rel-pbe-spn-rrkjus_psl.0.3.1.UPF: wavefunction(s)  3P 3P renormalized
               file V.rel-pbe-spnl-rrkjus_psl.1.0.0.UPF: wavefunction(s)  3P 3P 3D 3D renormalized

     Fixed quantization axis for GGA:     0.000000    0.000000    1.000000

     Subspace diagonalization in iterative solution of the eigenvalue problem:
     a serial algorithm will be used


     Parallelization info
     --------------------
     sticks:   dense  smooth     PW     G-vecs:    dense   smooth      PW
     Min        2050     821    221               150041    37984    5312
     Max        2052     822    223               150042    37988    5314
     Sum       12307    4927   1333               900247   227913   31879


     Title: 
     Co2VAl                                                                     


     bravais-lattice index     =            2
     lattice parameter (alat)  =      10.9074  a.u.
     unit-cell volume          =     324.4146 (a.u.)^3
     number of atoms/cell      =            4
     number of atomic types    =            3
     number of electrons       =        50.00
     number of Kohn-Sham states=           60
     kinetic-energy cutoff     =     300.0000  Ry
     charge density cutoff     =    3000.0000  Ry
     Exchange-correlation      = PBE ( 1  4  3  4 0 0)
     Noncollinear calculation with spin-orbit


     celldm(1)=  10.907372  celldm(2)=   0.000000  celldm(3)=   0.000000
     celldm(4)=   0.000000  celldm(5)=   0.000000  celldm(6)=   0.000000

     crystal axes: (cart. coord. in units of alat)
               a(1) = (  -0.500000   0.000000   0.500000 )  
               a(2) = (   0.000000   0.500000   0.500000 )  
               a(3) = (  -0.500000   0.500000   0.000000 )  

     reciprocal axes: (cart. coord. in units 2 pi/alat)
               b(1) = ( -1.000000 -1.000000  1.000000 )  
               b(2) = (  1.000000  1.000000  1.000000 )  
               b(3) = ( -1.000000  1.000000 -1.000000 )  


     PseudoPot. # 1 for Co read from file:
     /home/ug2018/mst/18114017/QE_sample/Co2VAl/band_structure/Co.rel-pbe-spn-rrkjus_psl.0.3.1.UPF
     MD5 check sum: 54732febc3943127cc1391ff92b60f64
     Pseudo is Ultrasoft + core correction, Zval = 17.0
     Generated using "atomic" code by A. Dal Corso v.6.2.2
     Using radial grid of 1193 points, 10 beta functions with: 
                l(1) =   0
                l(2) =   0
                l(3) =   1
                l(4) =   1
                l(5) =   1
                l(6) =   1
                l(7) =   2
                l(8) =   2
                l(9) =   2
               l(10) =   2
     Q(r) pseudized with 0 coefficients 


     PseudoPot. # 2 for V  read from file:
     /home/ug2018/mst/18114017/QE_sample/Co2VAl/band_structure/V.rel-pbe-spnl-rrkjus_psl.1.0.0.UPF
     MD5 check sum: 74207e36087ad0a67e33b0242fb85c12
     Pseudo is Ultrasoft + core correction, Zval = 13.0
     Generated using "atomic" code by A. Dal Corso v.6.2.2
     Using radial grid of 1181 points, 10 beta functions with: 
                l(1) =   0
                l(2) =   0
                l(3) =   1
                l(4) =   1
                l(5) =   1
                l(6) =   1
                l(7) =   2
                l(8) =   2
                l(9) =   2
               l(10) =   2
     Q(r) pseudized with 0 coefficients 


     PseudoPot. # 3 for Al read from file:
     /home/ug2018/mst/18114017/QE_sample/Co2VAl/band_structure/Al.rel-pbe-nl-rrkjus_psl.1.0.0.UPF
     MD5 check sum: 49f37f8fe9babba23f1e8de5949893df
     Pseudo is Ultrasoft + core correction, Zval =  3.0
     Generated using "atomic" code by A. Dal Corso v.6.3
     Using radial grid of 1135 points,  6 beta functions with: 
                l(1) =   0
                l(2) =   0
                l(3) =   1
                l(4) =   1
                l(5) =   1
                l(6) =   1
     Q(r) pseudized with 0 coefficients 


     atomic species   valence    mass     pseudopotential
        Co            17.00    58.93319     Co( 1.00)
        V             13.00    50.94150     V ( 1.00)
        Al             3.00    26.98154     Al( 1.00)

     16 Sym. Ops., with inversion, found


                                    s                        frac. trans.

      isym =  1     identity                                     

 Time Reversal            0
 cryst.   s( 1) = (     1          0          0      )
                  (     0          1          0      )
                  (     0          0          1      )

 cart.    s( 1) = (  1.0000000  0.0000000  0.0000000 )
                  (  0.0000000  1.0000000  0.0000000 )
                  (  0.0000000  0.0000000  1.0000000 )


      isym =  2     180 deg rotation - cart. axis [0,0,1]        

 Time Reversal            0
 cryst.   s( 2) = (     0          1         -1      )
                  (     1          0         -1      )
                  (     0          0         -1      )

 cart.    s( 2) = ( -1.0000000  0.0000000  0.0000000 )
                  (  0.0000000 -1.0000000  0.0000000 )
                  (  0.0000000  0.0000000  1.0000000 )


      isym =  3     180 deg rotation - cart. axis [0,1,0]        

 Time Reversal            1
 cryst.   s( 3) = (    -1          0          0      )
                  (    -1          0          1      )
                  (    -1          1          0      )

 cart.    s( 3) = ( -1.0000000  0.0000000  0.0000000 )
                  (  0.0000000  1.0000000  0.0000000 )
                  (  0.0000000  0.0000000 -1.0000000 )


      isym =  4     180 deg rotation - cart. axis [1,0,0]        

 Time Reversal            1
 cryst.   s( 4) = (     0         -1          1      )
                  (     0         -1          0      )
                  (     1         -1          0      )

 cart.    s( 4) = (  1.0000000  0.0000000  0.0000000 )
                  (  0.0000000 -1.0000000  0.0000000 )
                  (  0.0000000  0.0000000 -1.0000000 )


      isym =  5     180 deg rotation - cart. axis [1,1,0]        

 Time Reversal            1
 cryst.   s( 5) = (     0         -1          0      )
                  (    -1          0          0      )
                  (     0          0         -1      )

 cart.    s( 5) = (  0.0000000  1.0000000  0.0000000 )
                  (  1.0000000  0.0000000  0.0000000 )
                  (  0.0000000  0.0000000 -1.0000000 )


      isym =  6     180 deg rotation - cart. axis [1,-1,0]       

 Time Reversal            1
 cryst.   s( 6) = (    -1          0          1      )
                  (     0         -1          1      )
                  (     0          0          1      )

 cart.    s( 6) = (  0.0000000 -1.0000000  0.0000000 )
                  ( -1.0000000  0.0000000  0.0000000 )
                  (  0.0000000  0.0000000 -1.0000000 )


      isym =  7      90 deg rotation - cart. axis [0,0,-1]       

 Time Reversal            0
 cryst.   s( 7) = (     0          1          0      )
                  (     0          1         -1      )
                  (    -1          1          0      )

 cart.    s( 7) = (  0.0000000  1.0000000  0.0000000 )
                  ( -1.0000000  0.0000000  0.0000000 )
                  (  0.0000000  0.0000000  1.0000000 )


      isym =  8      90 deg rotation - cart. axis [0,0,1]        

 Time Reversal            0
 cryst.   s( 8) = (     1          0         -1      )
                  (     1          0          0      )
                  (     1         -1          0      )

 cart.    s( 8) = (  0.0000000 -1.0000000  0.0000000 )
                  (  1.0000000  0.0000000  0.0000000 )
                  (  0.0000000  0.0000000  1.0000000 )


      isym =  9     inversion                                    

 Time Reversal            0
 cryst.   s( 9) = (    -1          0          0      )
                  (     0         -1          0      )
                  (     0          0         -1      )

 cart.    s( 9) = ( -1.0000000  0.0000000  0.0000000 )
                  (  0.0000000 -1.0000000  0.0000000 )
                  (  0.0000000  0.0000000 -1.0000000 )


      isym = 10     inv. 180 deg rotation - cart. axis [0,0,1]   

 Time Reversal            0
 cryst.   s(10) = (     0         -1          1      )
                  (    -1          0          1      )
                  (     0          0          1      )

 cart.    s(10) = (  1.0000000  0.0000000  0.0000000 )
                  (  0.0000000  1.0000000  0.0000000 )
                  (  0.0000000  0.0000000 -1.0000000 )


      isym = 11     inv. 180 deg rotation - cart. axis [0,1,0]   

 Time Reversal            1
 cryst.   s(11) = (     1          0          0      )
                  (     1          0         -1      )
                  (     1         -1          0      )

 cart.    s(11) = (  1.0000000  0.0000000  0.0000000 )
                  (  0.0000000 -1.0000000  0.0000000 )
                  (  0.0000000  0.0000000  1.0000000 )


      isym = 12     inv. 180 deg rotation - cart. axis [1,0,0]   

 Time Reversal            1
 cryst.   s(12) = (     0          1         -1      )
                  (     0          1          0      )
                  (    -1          1          0      )

 cart.    s(12) = ( -1.0000000  0.0000000  0.0000000 )
                  (  0.0000000  1.0000000  0.0000000 )
                  (  0.0000000  0.0000000  1.0000000 )


      isym = 13     inv. 180 deg rotation - cart. axis [1,1,0]   

 Time Reversal            1
 cryst.   s(13) = (     0          1          0      )
                  (     1          0          0      )
                  (     0          0          1      )

 cart.    s(13) = (  0.0000000 -1.0000000  0.0000000 )
                  ( -1.0000000  0.0000000  0.0000000 )
                  (  0.0000000  0.0000000  1.0000000 )


      isym = 14     inv. 180 deg rotation - cart. axis [1,-1,0]  

 Time Reversal            1
 cryst.   s(14) = (     1          0         -1      )
                  (     0          1         -1      )
                  (     0          0         -1      )

 cart.    s(14) = (  0.0000000  1.0000000  0.0000000 )
                  (  1.0000000  0.0000000  0.0000000 )
                  (  0.0000000  0.0000000  1.0000000 )


      isym = 15     inv.  90 deg rotation - cart. axis [0,0,-1]  

 Time Reversal            0
 cryst.   s(15) = (     0         -1          0      )
                  (     0         -1          1      )
                  (     1         -1          0      )

 cart.    s(15) = (  0.0000000 -1.0000000  0.0000000 )
                  (  1.0000000  0.0000000  0.0000000 )
                  (  0.0000000  0.0000000 -1.0000000 )


      isym = 16     inv.  90 deg rotation - cart. axis [0,0,1]   

 Time Reversal            0
 cryst.   s(16) = (    -1          0          1      )
                  (    -1          0          0      )
                  (    -1          1          0      )

 cart.    s(16) = (  0.0000000  1.0000000  0.0000000 )
                  ( -1.0000000  0.0000000  0.0000000 )
                  (  0.0000000  0.0000000 -1.0000000 )


     the magnetic double point group is D_4h(4/mmm) [C_4h (4/m) ]
     using the double point group C_4h (4/m) 
     there are 16 classes and  8 irreducible representations
     the character table:

       E     -E    C4    -C4   C2    -C2   C4^3  -C4^3 i     -i    S4^3  -S4^3
                                                                              
G_5+   1.00 -1.00  0.71 -0.71  0.00  0.00  0.71 -0.71  1.00 -1.00  0.71 -0.71
G_6+   1.00 -1.00  0.71 -0.71  0.00  0.00  0.71 -0.71  1.00 -1.00  0.71 -0.71
G_7+   1.00 -1.00 -0.71  0.71  0.00  0.00 -0.71  0.71  1.00 -1.00 -0.71  0.71
G_8+   1.00 -1.00 -0.71  0.71  0.00  0.00 -0.71  0.71  1.00 -1.00 -0.71  0.71
G_5-   1.00 -1.00  0.71 -0.71  0.00  0.00  0.71 -0.71 -1.00  1.00 -0.71  0.71
G_6-   1.00 -1.00  0.71 -0.71  0.00  0.00  0.71 -0.71 -1.00  1.00 -0.71  0.71
G_7-   1.00 -1.00 -0.71  0.71  0.00  0.00 -0.71  0.71 -1.00  1.00  0.71 -0.71
G_8-   1.00 -1.00 -0.71  0.71  0.00  0.00 -0.71  0.71 -1.00  1.00  0.71 -0.71

       s_h   -s_h  S4    -S4  
                              
G_5+   0.00  0.00  0.71 -0.71
G_6+   0.00  0.00  0.71 -0.71
G_7+   0.00  0.00 -0.71  0.71
G_8+   0.00  0.00 -0.71  0.71
G_5-   0.00  0.00 -0.71  0.71
G_6-   0.00  0.00 -0.71  0.71
G_7-   0.00  0.00  0.71 -0.71
G_8-   0.00  0.00  0.71 -0.71

     imaginary part

       E     -E    C4    -C4   C2    -C2   C4^3  -C4^3 i     -i    S4^3  -S4^3
                                                                              
G_5+   0.00  0.00  0.71 -0.71  1.00 -1.00 -0.71  0.71  0.00  0.00  0.71 -0.71
G_6+   0.00  0.00 -0.71  0.71 -1.00  1.00  0.71 -0.71  0.00  0.00 -0.71  0.71
G_7+   0.00  0.00 -0.71  0.71  1.00 -1.00  0.71 -0.71  0.00  0.00 -0.71  0.71
G_8+   0.00  0.00  0.71 -0.71 -1.00  1.00 -0.71  0.71  0.00  0.00  0.71 -0.71
G_5-   0.00  0.00  0.71 -0.71  1.00 -1.00 -0.71  0.71  0.00  0.00 -0.71  0.71
G_6-   0.00  0.00 -0.71  0.71 -1.00  1.00  0.71 -0.71  0.00  0.00  0.71 -0.71
G_7-   0.00  0.00 -0.71  0.71  1.00 -1.00  0.71 -0.71  0.00  0.00  0.71 -0.71
G_8-   0.00  0.00  0.71 -0.71 -1.00  1.00 -0.71  0.71  0.00  0.00 -0.71  0.71

       s_h   -s_h  S4    -S4  
                              
G_5+   1.00 -1.00 -0.71  0.71
G_6+  -1.00  1.00  0.71 -0.71
G_7+   1.00 -1.00  0.71 -0.71
G_8+  -1.00  1.00 -0.71  0.71
G_5-  -1.00  1.00  0.71 -0.71
G_6-   1.00 -1.00 -0.71  0.71
G_7-  -1.00  1.00 -0.71  0.71
G_8-   1.00 -1.00  0.71 -0.71

     the symmetry operations in each class and the name of the first element:

     E             1
          identity                                               
     -E           -1
          identity E                                             
     C4            4
           90 deg rotation - cart. axis [0,0,1]                  
     -C4          -4
           90 deg rotation - cart. axis [0,0,1] E                
     C2            2
          180 deg rotation - cart. axis [0,0,1]                  
     -C2          -2
          180 deg rotation - cart. axis [0,0,1] E                
     C4^3          3
           90 deg rotation - cart. axis [0,0,-1]                 
     -C4^3        -3
           90 deg rotation - cart. axis [0,0,-1] E               
     i             5
          inversion                                              
     -i           -5
          inversion E                                            
     S4^3          8
          inv.  90 deg rotation - cart. axis [0,0,1]             
     -S4^3        -8
          inv.  90 deg rotation - cart. axis [0,0,1] E           
     s_h           6
          inv. 180 deg rotation - cart. axis [0,0,1]             
     -s_h         -6
          inv. 180 deg rotation - cart. axis [0,0,1] E           
     S4            7
          inv.  90 deg rotation - cart. axis [0,0,-1]            
     -S4          -7
          inv.  90 deg rotation - cart. axis [0,0,-1] E          

   Cartesian axes

     site n.     atom                  positions (alat units)
         1           V   tau(   1) = (   0.0000000   0.0000000   0.0000000  )
         2           Al  tau(   2) = (   0.5000000   0.5000000   0.5000000  )
         3           Co  tau(   3) = (   0.7500000   0.7500000   0.7500000  )
         4           Co  tau(   4) = (   0.2500000   0.2500000   0.2500000  )

   Crystallographic axes

     site n.     atom                  positions (cryst. coord.)
         1           V   tau(   1) = (  0.0000000  0.0000000  0.0000000  )
         2           Al  tau(   2) = ( -0.5000000  1.5000000 -0.5000000  )
         3           Co  tau(   3) = ( -0.7500000  2.2500000 -0.7500000  )
         4           Co  tau(   4) = ( -0.2500000  0.7500000 -0.2500000  )

     number of k points=   181  Marzari-Vanderbilt smearing, width (Ry)=  0.0100
                       cart. coord. in units 2pi/alat
        k(    1) = (   0.0000000   0.0000000   1.0000000), wk =   0.0055249
        k(    2) = (   0.0000000   0.0000000   0.9666667), wk =   0.0055249
        k(    3) = (   0.0000000   0.0000000   0.9333333), wk =   0.0055249
        k(    4) = (   0.0000000   0.0000000   0.9000000), wk =   0.0055249
        k(    5) = (   0.0000000   0.0000000   0.8666667), wk =   0.0055249
        k(    6) = (   0.0000000   0.0000000   0.8333333), wk =   0.0055249
        k(    7) = (   0.0000000   0.0000000   0.8000000), wk =   0.0055249
        k(    8) = (   0.0000000   0.0000000   0.7666667), wk =   0.0055249
        k(    9) = (   0.0000000   0.0000000   0.7333333), wk =   0.0055249
        k(   10) = (   0.0000000   0.0000000   0.7000000), wk =   0.0055249
        k(   11) = (   0.0000000   0.0000000   0.6666667), wk =   0.0055249
        k(   12) = (   0.0000000   0.0000000   0.6333333), wk =   0.0055249
        k(   13) = (   0.0000000   0.0000000   0.6000000), wk =   0.0055249
        k(   14) = (   0.0000000   0.0000000   0.5666667), wk =   0.0055249
        k(   15) = (   0.0000000   0.0000000   0.5333333), wk =   0.0055249
        k(   16) = (   0.0000000   0.0000000   0.5000000), wk =   0.0055249
        k(   17) = (   0.0000000   0.0000000   0.4666667), wk =   0.0055249
        k(   18) = (   0.0000000   0.0000000   0.4333333), wk =   0.0055249
        k(   19) = (   0.0000000   0.0000000   0.4000000), wk =   0.0055249
        k(   20) = (   0.0000000   0.0000000   0.3666667), wk =   0.0055249
        k(   21) = (   0.0000000   0.0000000   0.3333333), wk =   0.0055249
        k(   22) = (   0.0000000   0.0000000   0.3000000), wk =   0.0055249
        k(   23) = (   0.0000000   0.0000000   0.2666667), wk =   0.0055249
        k(   24) = (   0.0000000   0.0000000   0.2333333), wk =   0.0055249
        k(   25) = (   0.0000000   0.0000000   0.2000000), wk =   0.0055249
        k(   26) = (   0.0000000   0.0000000   0.1666667), wk =   0.0055249
        k(   27) = (   0.0000000   0.0000000   0.1333333), wk =   0.0055249
        k(   28) = (   0.0000000   0.0000000   0.1000000), wk =   0.0055249
        k(   29) = (   0.0000000   0.0000000   0.0666667), wk =   0.0055249
        k(   30) = (   0.0000000   0.0000000   0.0333333), wk =   0.0055249
        k(   31) = (   0.0000000   0.0000000   0.0000000), wk =   0.0055249
        k(   32) = (   0.0166667  -0.0166667   0.0166667), wk =   0.0055249
        k(   33) = (   0.0333333  -0.0333333   0.0333333), wk =   0.0055249
        k(   34) = (   0.0500000  -0.0500000   0.0500000), wk =   0.0055249
        k(   35) = (   0.0666667  -0.0666667   0.0666667), wk =   0.0055249
        k(   36) = (   0.0833333  -0.0833333   0.0833333), wk =   0.0055249
        k(   37) = (   0.1000000  -0.1000000   0.1000000), wk =   0.0055249
        k(   38) = (   0.1166667  -0.1166667   0.1166667), wk =   0.0055249
        k(   39) = (   0.1333333  -0.1333333   0.1333333), wk =   0.0055249
        k(   40) = (   0.1500000  -0.1500000   0.1500000), wk =   0.0055249
        k(   41) = (   0.1666667  -0.1666667   0.1666667), wk =   0.0055249
        k(   42) = (   0.1833333  -0.1833333   0.1833333), wk =   0.0055249
        k(   43) = (   0.2000000  -0.2000000   0.2000000), wk =   0.0055249
        k(   44) = (   0.2166667  -0.2166667   0.2166667), wk =   0.0055249
        k(   45) = (   0.2333333  -0.2333333   0.2333333), wk =   0.0055249
        k(   46) = (   0.2500000  -0.2500000   0.2500000), wk =   0.0055249
        k(   47) = (   0.2666667  -0.2666667   0.2666667), wk =   0.0055249
        k(   48) = (   0.2833333  -0.2833333   0.2833333), wk =   0.0055249
        k(   49) = (   0.3000000  -0.3000000   0.3000000), wk =   0.0055249
        k(   50) = (   0.3166667  -0.3166667   0.3166667), wk =   0.0055249
        k(   51) = (   0.3333333  -0.3333333   0.3333333), wk =   0.0055249
        k(   52) = (   0.3500000  -0.3500000   0.3500000), wk =   0.0055249
        k(   53) = (   0.3666667  -0.3666667   0.3666667), wk =   0.0055249
        k(   54) = (   0.3833333  -0.3833333   0.3833333), wk =   0.0055249
        k(   55) = (   0.4000000  -0.4000000   0.4000000), wk =   0.0055249
        k(   56) = (   0.4166667  -0.4166667   0.4166667), wk =   0.0055249
        k(   57) = (   0.4333333  -0.4333333   0.4333333), wk =   0.0055249
        k(   58) = (   0.4500000  -0.4500000   0.4500000), wk =   0.0055249
        k(   59) = (   0.4666667  -0.4666667   0.4666667), wk =   0.0055249
        k(   60) = (   0.4833333  -0.4833333   0.4833333), wk =   0.0055249
        k(   61) = (   0.5000000  -0.5000000   0.5000000), wk =   0.0055249
        k(   62) = (   0.5000000  -0.5166667   0.4833333), wk =   0.0055249
        k(   63) = (   0.5000000  -0.5333333   0.4666667), wk =   0.0055249
        k(   64) = (   0.5000000  -0.5500000   0.4500000), wk =   0.0055249
        k(   65) = (   0.5000000  -0.5666667   0.4333333), wk =   0.0055249
        k(   66) = (   0.5000000  -0.5833333   0.4166667), wk =   0.0055249
        k(   67) = (   0.5000000  -0.6000000   0.4000000), wk =   0.0055249
        k(   68) = (   0.5000000  -0.6166667   0.3833333), wk =   0.0055249
        k(   69) = (   0.5000000  -0.6333333   0.3666667), wk =   0.0055249
        k(   70) = (   0.5000000  -0.6500000   0.3500000), wk =   0.0055249
        k(   71) = (   0.5000000  -0.6666667   0.3333333), wk =   0.0055249
        k(   72) = (   0.5000000  -0.6833333   0.3166667), wk =   0.0055249
        k(   73) = (   0.5000000  -0.7000000   0.3000000), wk =   0.0055249
        k(   74) = (   0.5000000  -0.7166667   0.2833333), wk =   0.0055249
        k(   75) = (   0.5000000  -0.7333333   0.2666667), wk =   0.0055249
        k(   76) = (   0.5000000  -0.7500000   0.2500000), wk =   0.0055249
        k(   77) = (   0.5000000  -0.7666667   0.2333333), wk =   0.0055249
        k(   78) = (   0.5000000  -0.7833333   0.2166667), wk =   0.0055249
        k(   79) = (   0.5000000  -0.8000000   0.2000000), wk =   0.0055249
        k(   80) = (   0.5000000  -0.8166667   0.1833333), wk =   0.0055249
        k(   81) = (   0.5000000  -0.8333333   0.1666667), wk =   0.0055249
        k(   82) = (   0.5000000  -0.8500000   0.1500000), wk =   0.0055249
        k(   83) = (   0.5000000  -0.8666667   0.1333333), wk =   0.0055249
        k(   84) = (   0.5000000  -0.8833333   0.1166667), wk =   0.0055249
        k(   85) = (   0.5000000  -0.9000000   0.1000000), wk =   0.0055249
        k(   86) = (   0.5000000  -0.9166667   0.0833333), wk =   0.0055249
        k(   87) = (   0.5000000  -0.9333333   0.0666667), wk =   0.0055249
        k(   88) = (   0.5000000  -0.9500000   0.0500000), wk =   0.0055249
        k(   89) = (   0.5000000  -0.9666667   0.0333333), wk =   0.0055249
        k(   90) = (   0.5000000  -0.9833333   0.0166667), wk =   0.0055249
        k(   91) = (   0.5000000  -1.0000000   0.0000000), wk =   0.0055249
        k(   92) = (   0.5083333  -0.9916667   0.0000000), wk =   0.0055249
        k(   93) = (   0.5166667  -0.9833333   0.0000000), wk =   0.0055249
        k(   94) = (   0.5250000  -0.9750000   0.0000000), wk =   0.0055249
        k(   95) = (   0.5333333  -0.9666667   0.0000000), wk =   0.0055249
        k(   96) = (   0.5416667  -0.9583333   0.0000000), wk =   0.0055249
        k(   97) = (   0.5500000  -0.9500000   0.0000000), wk =   0.0055249
        k(   98) = (   0.5583333  -0.9416667   0.0000000), wk =   0.0055249
        k(   99) = (   0.5666667  -0.9333333   0.0000000), wk =   0.0055249
        k(  100) = (   0.5750000  -0.9250000   0.0000000), wk =   0.0055249
        k(  101) = (   0.5833333  -0.9166667   0.0000000), wk =   0.0055249
        k(  102) = (   0.5916667  -0.9083333   0.0000000), wk =   0.0055249
        k(  103) = (   0.6000000  -0.9000000   0.0000000), wk =   0.0055249
        k(  104) = (   0.6083333  -0.8916667   0.0000000), wk =   0.0055249
        k(  105) = (   0.6166667  -0.8833333   0.0000000), wk =   0.0055249
        k(  106) = (   0.6250000  -0.8750000   0.0000000), wk =   0.0055249
        k(  107) = (   0.6333333  -0.8666667   0.0000000), wk =   0.0055249
        k(  108) = (   0.6416667  -0.8583333   0.0000000), wk =   0.0055249
        k(  109) = (   0.6500000  -0.8500000   0.0000000), wk =   0.0055249
        k(  110) = (   0.6583333  -0.8416667   0.0000000), wk =   0.0055249
        k(  111) = (   0.6666667  -0.8333333   0.0000000), wk =   0.0055249
        k(  112) = (   0.6750000  -0.8250000   0.0000000), wk =   0.0055249
        k(  113) = (   0.6833333  -0.8166667   0.0000000), wk =   0.0055249
        k(  114) = (   0.6916667  -0.8083333   0.0000000), wk =   0.0055249
        k(  115) = (   0.7000000  -0.8000000   0.0000000), wk =   0.0055249
        k(  116) = (   0.7083333  -0.7916667   0.0000000), wk =   0.0055249
        k(  117) = (   0.7166667  -0.7833333   0.0000000), wk =   0.0055249
        k(  118) = (   0.7250000  -0.7750000   0.0000000), wk =   0.0055249
        k(  119) = (   0.7333333  -0.7666667   0.0000000), wk =   0.0055249
        k(  120) = (   0.7416667  -0.7583333   0.0000000), wk =   0.0055249
        k(  121) = (   0.7500000  -0.7500000   0.0000000), wk =   0.0055249
        k(  122) = (   0.7250000  -0.7250000   0.0000000), wk =   0.0055249
        k(  123) = (   0.7000000  -0.7000000   0.0000000), wk =   0.0055249
        k(  124) = (   0.6750000  -0.6750000   0.0000000), wk =   0.0055249
        k(  125) = (   0.6500000  -0.6500000   0.0000000), wk =   0.0055249
        k(  126) = (   0.6250000  -0.6250000   0.0000000), wk =   0.0055249
        k(  127) = (   0.6000000  -0.6000000   0.0000000), wk =   0.0055249
        k(  128) = (   0.5750000  -0.5750000   0.0000000), wk =   0.0055249
        k(  129) = (   0.5500000  -0.5500000   0.0000000), wk =   0.0055249
        k(  130) = (   0.5250000  -0.5250000   0.0000000), wk =   0.0055249
        k(  131) = (   0.5000000  -0.5000000   0.0000000), wk =   0.0055249
        k(  132) = (   0.4750000  -0.4750000   0.0000000), wk =   0.0055249
        k(  133) = (   0.4500000  -0.4500000   0.0000000), wk =   0.0055249
        k(  134) = (   0.4250000  -0.4250000   0.0000000), wk =   0.0055249
        k(  135) = (   0.4000000  -0.4000000   0.0000000), wk =   0.0055249
        k(  136) = (   0.3750000  -0.3750000   0.0000000), wk =   0.0055249
        k(  137) = (   0.3500000  -0.3500000   0.0000000), wk =   0.0055249
        k(  138) = (   0.3250000  -0.3250000   0.0000000), wk =   0.0055249
        k(  139) = (   0.3000000  -0.3000000   0.0000000), wk =   0.0055249
        k(  140) = (   0.2750000  -0.2750000   0.0000000), wk =   0.0055249
        k(  141) = (   0.2500000  -0.2500000   0.0000000), wk =   0.0055249
        k(  142) = (   0.2250000  -0.2250000   0.0000000), wk =   0.0055249
        k(  143) = (   0.2000000  -0.2000000   0.0000000), wk =   0.0055249
        k(  144) = (   0.1750000  -0.1750000   0.0000000), wk =   0.0055249
        k(  145) = (   0.1500000  -0.1500000   0.0000000), wk =   0.0055249
        k(  146) = (   0.1250000  -0.1250000   0.0000000), wk =   0.0055249
        k(  147) = (   0.1000000  -0.1000000   0.0000000), wk =   0.0055249
        k(  148) = (   0.0750000  -0.0750000   0.0000000), wk =   0.0055249
        k(  149) = (   0.0500000  -0.0500000   0.0000000), wk =   0.0055249
        k(  150) = (   0.0250000  -0.0250000   0.0000000), wk =   0.0055249
        k(  151) = (   0.0000000   0.0000000   0.0000000), wk =   0.0055249
        k(  152) = (   0.0166667  -0.0333333   0.0000000), wk =   0.0055249
        k(  153) = (   0.0333333  -0.0666667   0.0000000), wk =   0.0055249
        k(  154) = (   0.0500000  -0.1000000   0.0000000), wk =   0.0055249
        k(  155) = (   0.0666667  -0.1333333   0.0000000), wk =   0.0055249
        k(  156) = (   0.0833333  -0.1666667   0.0000000), wk =   0.0055249
        k(  157) = (   0.1000000  -0.2000000   0.0000000), wk =   0.0055249
        k(  158) = (   0.1166667  -0.2333333   0.0000000), wk =   0.0055249
        k(  159) = (   0.1333333  -0.2666667   0.0000000), wk =   0.0055249
        k(  160) = (   0.1500000  -0.3000000   0.0000000), wk =   0.0055249
        k(  161) = (   0.1666667  -0.3333333   0.0000000), wk =   0.0055249
        k(  162) = (   0.1833333  -0.3666667   0.0000000), wk =   0.0055249
        k(  163) = (   0.2000000  -0.4000000   0.0000000), wk =   0.0055249
        k(  164) = (   0.2166667  -0.4333333   0.0000000), wk =   0.0055249
        k(  165) = (   0.2333333  -0.4666667   0.0000000), wk =   0.0055249
        k(  166) = (   0.2500000  -0.5000000   0.0000000), wk =   0.0055249
        k(  167) = (   0.2666667  -0.5333333   0.0000000), wk =   0.0055249
        k(  168) = (   0.2833333  -0.5666667   0.0000000), wk =   0.0055249
        k(  169) = (   0.3000000  -0.6000000   0.0000000), wk =   0.0055249
        k(  170) = (   0.3166667  -0.6333333   0.0000000), wk =   0.0055249
        k(  171) = (   0.3333333  -0.6666667   0.0000000), wk =   0.0055249
        k(  172) = (   0.3500000  -0.7000000   0.0000000), wk =   0.0055249
        k(  173) = (   0.3666667  -0.7333333   0.0000000), wk =   0.0055249
        k(  174) = (   0.3833333  -0.7666667   0.0000000), wk =   0.0055249
        k(  175) = (   0.4000000  -0.8000000   0.0000000), wk =   0.0055249
        k(  176) = (   0.4166667  -0.8333333   0.0000000), wk =   0.0055249
        k(  177) = (   0.4333333  -0.8666667   0.0000000), wk =   0.0055249
        k(  178) = (   0.4500000  -0.9000000   0.0000000), wk =   0.0055249
        k(  179) = (   0.4666667  -0.9333333   0.0000000), wk =   0.0055249
        k(  180) = (   0.4833333  -0.9666667   0.0000000), wk =   0.0055249
        k(  181) = (   0.5000000  -1.0000000   0.0000000), wk =   0.0055249

                       cryst. coord.
        k(    1) = (   0.5000000   0.5000000   0.0000000), wk =   0.0055249
        k(    2) = (   0.4833333   0.4833333   0.0000000), wk =   0.0055249
        k(    3) = (   0.4666667   0.4666667   0.0000000), wk =   0.0055249
        k(    4) = (   0.4500000   0.4500000   0.0000000), wk =   0.0055249
        k(    5) = (   0.4333333   0.4333333   0.0000000), wk =   0.0055249
        k(    6) = (   0.4166667   0.4166667   0.0000000), wk =   0.0055249
        k(    7) = (   0.4000000   0.4000000   0.0000000), wk =   0.0055249
        k(    8) = (   0.3833333   0.3833333   0.0000000), wk =   0.0055249
        k(    9) = (   0.3666667   0.3666667   0.0000000), wk =   0.0055249
        k(   10) = (   0.3500000   0.3500000   0.0000000), wk =   0.0055249
        k(   11) = (   0.3333333   0.3333333   0.0000000), wk =   0.0055249
        k(   12) = (   0.3166667   0.3166667   0.0000000), wk =   0.0055249
        k(   13) = (   0.3000000   0.3000000   0.0000000), wk =   0.0055249
        k(   14) = (   0.2833333   0.2833333   0.0000000), wk =   0.0055249
        k(   15) = (   0.2666667   0.2666667   0.0000000), wk =   0.0055249
        k(   16) = (   0.2500000   0.2500000   0.0000000), wk =   0.0055249
        k(   17) = (   0.2333333   0.2333333   0.0000000), wk =   0.0055249
        k(   18) = (   0.2166667   0.2166667   0.0000000), wk =   0.0055249
        k(   19) = (   0.2000000   0.2000000   0.0000000), wk =   0.0055249
        k(   20) = (   0.1833333   0.1833333   0.0000000), wk =   0.0055249
        k(   21) = (   0.1666667   0.1666667   0.0000000), wk =   0.0055249
        k(   22) = (   0.1500000   0.1500000   0.0000000), wk =   0.0055249
        k(   23) = (   0.1333333   0.1333333   0.0000000), wk =   0.0055249
        k(   24) = (   0.1166667   0.1166667   0.0000000), wk =   0.0055249
        k(   25) = (   0.1000000   0.1000000   0.0000000), wk =   0.0055249
        k(   26) = (   0.0833333   0.0833333   0.0000000), wk =   0.0055249
        k(   27) = (   0.0666667   0.0666667   0.0000000), wk =   0.0055249
        k(   28) = (   0.0500000   0.0500000   0.0000000), wk =   0.0055249
        k(   29) = (   0.0333333   0.0333333   0.0000000), wk =   0.0055249
        k(   30) = (   0.0166667   0.0166667   0.0000000), wk =   0.0055249
        k(   31) = (   0.0000000   0.0000000   0.0000000), wk =   0.0055249
        k(   32) = (   0.0000000   0.0000000  -0.0166667), wk =   0.0055249
        k(   33) = (   0.0000000   0.0000000  -0.0333333), wk =   0.0055249
        k(   34) = (   0.0000000   0.0000000  -0.0500000), wk =   0.0055249
        k(   35) = (   0.0000000   0.0000000  -0.0666667), wk =   0.0055249
        k(   36) = (   0.0000000   0.0000000  -0.0833333), wk =   0.0055249
        k(   37) = (   0.0000000   0.0000000  -0.1000000), wk =   0.0055249
        k(   38) = (   0.0000000   0.0000000  -0.1166667), wk =   0.0055249
        k(   39) = (   0.0000000   0.0000000  -0.1333333), wk =   0.0055249
        k(   40) = (   0.0000000   0.0000000  -0.1500000), wk =   0.0055249
        k(   41) = (   0.0000000   0.0000000  -0.1666667), wk =   0.0055249
        k(   42) = (   0.0000000   0.0000000  -0.1833333), wk =   0.0055249
        k(   43) = (   0.0000000   0.0000000  -0.2000000), wk =   0.0055249
        k(   44) = (   0.0000000   0.0000000  -0.2166667), wk =   0.0055249
        k(   45) = (   0.0000000   0.0000000  -0.2333333), wk =   0.0055249
        k(   46) = (   0.0000000   0.0000000  -0.2500000), wk =   0.0055249
        k(   47) = (   0.0000000   0.0000000  -0.2666667), wk =   0.0055249
        k(   48) = (   0.0000000   0.0000000  -0.2833333), wk =   0.0055249
        k(   49) = (   0.0000000   0.0000000  -0.3000000), wk =   0.0055249
        k(   50) = (   0.0000000   0.0000000  -0.3166667), wk =   0.0055249
        k(   51) = (   0.0000000   0.0000000  -0.3333333), wk =   0.0055249
        k(   52) = (   0.0000000   0.0000000  -0.3500000), wk =   0.0055249
        k(   53) = (   0.0000000   0.0000000  -0.3666667), wk =   0.0055249
        k(   54) = (   0.0000000   0.0000000  -0.3833333), wk =   0.0055249
        k(   55) = (   0.0000000   0.0000000  -0.4000000), wk =   0.0055249
        k(   56) = (   0.0000000   0.0000000  -0.4166667), wk =   0.0055249
        k(   57) = (   0.0000000   0.0000000  -0.4333333), wk =   0.0055249
        k(   58) = (   0.0000000   0.0000000  -0.4500000), wk =   0.0055249
        k(   59) = (   0.0000000   0.0000000  -0.4666667), wk =   0.0055249
        k(   60) = (   0.0000000   0.0000000  -0.4833333), wk =   0.0055249
        k(   61) = (   0.0000000   0.0000000  -0.5000000), wk =   0.0055249
        k(   62) = (  -0.0083333  -0.0166667  -0.5083333), wk =   0.0055249
        k(   63) = (  -0.0166667  -0.0333333  -0.5166667), wk =   0.0055249
        k(   64) = (  -0.0250000  -0.0500000  -0.5250000), wk =   0.0055249
        k(   65) = (  -0.0333333  -0.0666667  -0.5333333), wk =   0.0055249
        k(   66) = (  -0.0416667  -0.0833333  -0.5416667), wk =   0.0055249
        k(   67) = (  -0.0500000  -0.1000000  -0.5500000), wk =   0.0055249
        k(   68) = (  -0.0583333  -0.1166667  -0.5583333), wk =   0.0055249
        k(   69) = (  -0.0666667  -0.1333333  -0.5666667), wk =   0.0055249
        k(   70) = (  -0.0750000  -0.1500000  -0.5750000), wk =   0.0055249
        k(   71) = (  -0.0833333  -0.1666667  -0.5833333), wk =   0.0055249
        k(   72) = (  -0.0916667  -0.1833333  -0.5916667), wk =   0.0055249
        k(   73) = (  -0.1000000  -0.2000000  -0.6000000), wk =   0.0055249
        k(   74) = (  -0.1083333  -0.2166667  -0.6083333), wk =   0.0055249
        k(   75) = (  -0.1166667  -0.2333333  -0.6166667), wk =   0.0055249
        k(   76) = (  -0.1250000  -0.2500000  -0.6250000), wk =   0.0055249
        k(   77) = (  -0.1333333  -0.2666667  -0.6333333), wk =   0.0055249
        k(   78) = (  -0.1416667  -0.2833333  -0.6416667), wk =   0.0055249
        k(   79) = (  -0.1500000  -0.3000000  -0.6500000), wk =   0.0055249
        k(   80) = (  -0.1583333  -0.3166667  -0.6583333), wk =   0.0055249
        k(   81) = (  -0.1666667  -0.3333333  -0.6666667), wk =   0.0055249
        k(   82) = (  -0.1750000  -0.3500000  -0.6750000), wk =   0.0055249
        k(   83) = (  -0.1833333  -0.3666667  -0.6833333), wk =   0.0055249
        k(   84) = (  -0.1916667  -0.3833333  -0.6916667), wk =   0.0055249
        k(   85) = (  -0.2000000  -0.4000000  -0.7000000), wk =   0.0055249
        k(   86) = (  -0.2083333  -0.4166667  -0.7083333), wk =   0.0055249
        k(   87) = (  -0.2166667  -0.4333333  -0.7166667), wk =   0.0055249
        k(   88) = (  -0.2250000  -0.4500000  -0.7250000), wk =   0.0055249
        k(   89) = (  -0.2333333  -0.4666667  -0.7333333), wk =   0.0055249
        k(   90) = (  -0.2416667  -0.4833333  -0.7416667), wk =   0.0055249
        k(   91) = (  -0.2500000  -0.5000000  -0.7500000), wk =   0.0055249
        k(   92) = (  -0.2541667  -0.4958333  -0.7500000), wk =   0.0055249
        k(   93) = (  -0.2583333  -0.4916667  -0.7500000), wk =   0.0055249
        k(   94) = (  -0.2625000  -0.4875000  -0.7500000), wk =   0.0055249
        k(   95) = (  -0.2666667  -0.4833333  -0.7500000), wk =   0.0055249
        k(   96) = (  -0.2708333  -0.4791667  -0.7500000), wk =   0.0055249
        k(   97) = (  -0.2750000  -0.4750000  -0.7500000), wk =   0.0055249
        k(   98) = (  -0.2791667  -0.4708333  -0.7500000), wk =   0.0055249
        k(   99) = (  -0.2833333  -0.4666667  -0.7500000), wk =   0.0055249
        k(  100) = (  -0.2875000  -0.4625000  -0.7500000), wk =   0.0055249
        k(  101) = (  -0.2916667  -0.4583333  -0.7500000), wk =   0.0055249
        k(  102) = (  -0.2958333  -0.4541667  -0.7500000), wk =   0.0055249
        k(  103) = (  -0.3000000  -0.4500000  -0.7500000), wk =   0.0055249
        k(  104) = (  -0.3041667  -0.4458333  -0.7500000), wk =   0.0055249
        k(  105) = (  -0.3083333  -0.4416667  -0.7500000), wk =   0.0055249
        k(  106) = (  -0.3125000  -0.4375000  -0.7500000), wk =   0.0055249
        k(  107) = (  -0.3166667  -0.4333333  -0.7500000), wk =   0.0055249
        k(  108) = (  -0.3208333  -0.4291667  -0.7500000), wk =   0.0055249
        k(  109) = (  -0.3250000  -0.4250000  -0.7500000), wk =   0.0055249
        k(  110) = (  -0.3291667  -0.4208333  -0.7500000), wk =   0.0055249
        k(  111) = (  -0.3333333  -0.4166667  -0.7500000), wk =   0.0055249
        k(  112) = (  -0.3375000  -0.4125000  -0.7500000), wk =   0.0055249
        k(  113) = (  -0.3416667  -0.4083333  -0.7500000), wk =   0.0055249
        k(  114) = (  -0.3458333  -0.4041667  -0.7500000), wk =   0.0055249
        k(  115) = (  -0.3500000  -0.4000000  -0.7500000), wk =   0.0055249
        k(  116) = (  -0.3541667  -0.3958333  -0.7500000), wk =   0.0055249
        k(  117) = (  -0.3583333  -0.3916667  -0.7500000), wk =   0.0055249
        k(  118) = (  -0.3625000  -0.3875000  -0.7500000), wk =   0.0055249
        k(  119) = (  -0.3666667  -0.3833333  -0.7500000), wk =   0.0055249
        k(  120) = (  -0.3708333  -0.3791667  -0.7500000), wk =   0.0055249
        k(  121) = (  -0.3750000  -0.3750000  -0.7500000), wk =   0.0055249
        k(  122) = (  -0.3625000  -0.3625000  -0.7250000), wk =   0.0055249
        k(  123) = (  -0.3500000  -0.3500000  -0.7000000), wk =   0.0055249
        k(  124) = (  -0.3375000  -0.3375000  -0.6750000), wk =   0.0055249
        k(  125) = (  -0.3250000  -0.3250000  -0.6500000), wk =   0.0055249
        k(  126) = (  -0.3125000  -0.3125000  -0.6250000), wk =   0.0055249
        k(  127) = (  -0.3000000  -0.3000000  -0.6000000), wk =   0.0055249
        k(  128) = (  -0.2875000  -0.2875000  -0.5750000), wk =   0.0055249
        k(  129) = (  -0.2750000  -0.2750000  -0.5500000), wk =   0.0055249
        k(  130) = (  -0.2625000  -0.2625000  -0.5250000), wk =   0.0055249
        k(  131) = (  -0.2500000  -0.2500000  -0.5000000), wk =   0.0055249
        k(  132) = (  -0.2375000  -0.2375000  -0.4750000), wk =   0.0055249
        k(  133) = (  -0.2250000  -0.2250000  -0.4500000), wk =   0.0055249
        k(  134) = (  -0.2125000  -0.2125000  -0.4250000), wk =   0.0055249
        k(  135) = (  -0.2000000  -0.2000000  -0.4000000), wk =   0.0055249
        k(  136) = (  -0.1875000  -0.1875000  -0.3750000), wk =   0.0055249
        k(  137) = (  -0.1750000  -0.1750000  -0.3500000), wk =   0.0055249
        k(  138) = (  -0.1625000  -0.1625000  -0.3250000), wk =   0.0055249
        k(  139) = (  -0.1500000  -0.1500000  -0.3000000), wk =   0.0055249
        k(  140) = (  -0.1375000  -0.1375000  -0.2750000), wk =   0.0055249
        k(  141) = (  -0.1250000  -0.1250000  -0.2500000), wk =   0.0055249
        k(  142) = (  -0.1125000  -0.1125000  -0.2250000), wk =   0.0055249
        k(  143) = (  -0.1000000  -0.1000000  -0.2000000), wk =   0.0055249
        k(  144) = (  -0.0875000  -0.0875000  -0.1750000), wk =   0.0055249
        k(  145) = (  -0.0750000  -0.0750000  -0.1500000), wk =   0.0055249
        k(  146) = (  -0.0625000  -0.0625000  -0.1250000), wk =   0.0055249
        k(  147) = (  -0.0500000  -0.0500000  -0.1000000), wk =   0.0055249
        k(  148) = (  -0.0375000  -0.0375000  -0.0750000), wk =   0.0055249
        k(  149) = (  -0.0250000  -0.0250000  -0.0500000), wk =   0.0055249
        k(  150) = (  -0.0125000  -0.0125000  -0.0250000), wk =   0.0055249
        k(  151) = (   0.0000000   0.0000000   0.0000000), wk =   0.0055249
        k(  152) = (  -0.0083333  -0.0166667  -0.0250000), wk =   0.0055249
        k(  153) = (  -0.0166667  -0.0333333  -0.0500000), wk =   0.0055249
        k(  154) = (  -0.0250000  -0.0500000  -0.0750000), wk =   0.0055249
        k(  155) = (  -0.0333333  -0.0666667  -0.1000000), wk =   0.0055249
        k(  156) = (  -0.0416667  -0.0833333  -0.1250000), wk =   0.0055249
        k(  157) = (  -0.0500000  -0.1000000  -0.1500000), wk =   0.0055249
        k(  158) = (  -0.0583333  -0.1166667  -0.1750000), wk =   0.0055249
        k(  159) = (  -0.0666667  -0.1333333  -0.2000000), wk =   0.0055249
        k(  160) = (  -0.0750000  -0.1500000  -0.2250000), wk =   0.0055249
        k(  161) = (  -0.0833333  -0.1666667  -0.2500000), wk =   0.0055249
        k(  162) = (  -0.0916667  -0.1833333  -0.2750000), wk =   0.0055249
        k(  163) = (  -0.1000000  -0.2000000  -0.3000000), wk =   0.0055249
        k(  164) = (  -0.1083333  -0.2166667  -0.3250000), wk =   0.0055249
        k(  165) = (  -0.1166667  -0.2333333  -0.3500000), wk =   0.0055249
        k(  166) = (  -0.1250000  -0.2500000  -0.3750000), wk =   0.0055249
        k(  167) = (  -0.1333333  -0.2666667  -0.4000000), wk =   0.0055249
        k(  168) = (  -0.1416667  -0.2833333  -0.4250000), wk =   0.0055249
        k(  169) = (  -0.1500000  -0.3000000  -0.4500000), wk =   0.0055249
        k(  170) = (  -0.1583333  -0.3166667  -0.4750000), wk =   0.0055249
        k(  171) = (  -0.1666667  -0.3333333  -0.5000000), wk =   0.0055249
        k(  172) = (  -0.1750000  -0.3500000  -0.5250000), wk =   0.0055249
        k(  173) = (  -0.1833333  -0.3666667  -0.5500000), wk =   0.0055249
        k(  174) = (  -0.1916667  -0.3833333  -0.5750000), wk =   0.0055249
        k(  175) = (  -0.2000000  -0.4000000  -0.6000000), wk =   0.0055249
        k(  176) = (  -0.2083333  -0.4166667  -0.6250000), wk =   0.0055249
        k(  177) = (  -0.2166667  -0.4333333  -0.6500000), wk =   0.0055249
        k(  178) = (  -0.2250000  -0.4500000  -0.6750000), wk =   0.0055249
        k(  179) = (  -0.2333333  -0.4666667  -0.7000000), wk =   0.0055249
        k(  180) = (  -0.2416667  -0.4833333  -0.7250000), wk =   0.0055249
        k(  181) = (  -0.2500000  -0.5000000  -0.7500000), wk =   0.0055249

     Dense  grid:   900247 G-vectors     FFT dimensions: ( 135, 135, 135)

     Smooth grid:   227913 G-vectors     FFT dimensions: (  90,  90,  90)

     Dynamical RAM for                 wfc:       8.69 MB

     Dynamical RAM for     wfc (w. buffer):    1580.95 MB

     Dynamical RAM for           str. fact:       6.87 MB

     Dynamical RAM for           local pot:       0.00 MB

     Dynamical RAM for          nlocal pot:       8.40 MB

     Dynamical RAM for                qrad:      59.87 MB

     Dynamical RAM for          rho,v,vnew:      65.85 MB

     Dynamical RAM for           G-vectors:       8.88 MB

     Dynamical RAM for          h,s,v(r/c):       2.64 MB

     Dynamical RAM for          <psi|beta>:       0.21 MB

     Dynamical RAM for                 psi:      34.75 MB

     Dynamical RAM for                hpsi:      34.75 MB

     Dynamical RAM for                spsi:      34.75 MB

     Dynamical RAM for      wfcinit/wfcrot:      14.87 MB

     Dynamical RAM for           addusdens:    1408.01 MB

     Estimated static dynamical RAM per process >       1.72 GB

     Estimated max dynamical RAM per process >       3.10 GB

     Estimated total dynamical RAM >      18.60 GB
     Generating pointlists ...
     new r_m :   0.1786 (alat units)  1.9483 (a.u.) for type    1
     new r_m :   0.1786 (alat units)  1.9483 (a.u.) for type    2
     new r_m :   0.1786 (alat units)  1.9483 (a.u.) for type    3

     The potential is recalculated from file :
     /home/ug2018/mst/18114017/QE_sample/Co2VAl/band_structure/Co2VAl.save/charge-density

     Starting wfcs are   68 randomized atomic wfcs

     Band Structure Calculation
     Davidson diagonalization with overlap

     Computing kpt #:     1
     total cpu time spent up to now is       53.6 secs

     Computing kpt #:     2
     total cpu time spent up to now is       89.1 secs

     Computing kpt #:     3
     total cpu time spent up to now is      125.0 secs

     Computing kpt #:     4
     total cpu time spent up to now is      162.4 secs

     Computing kpt #:     5
     total cpu time spent up to now is      200.0 secs

     Computing kpt #:     6
     total cpu time spent up to now is      240.6 secs

     Computing kpt #:     7
     total cpu time spent up to now is      280.7 secs

     Computing kpt #:     8
     total cpu time spent up to now is      320.6 secs

     Computing kpt #:     9
     total cpu time spent up to now is      360.2 secs

     Computing kpt #:    10
     total cpu time spent up to now is      400.4 secs

     Computing kpt #:    11
     total cpu time spent up to now is      445.6 secs

     Computing kpt #:    12
     total cpu time spent up to now is      484.5 secs

     Computing kpt #:    13
     total cpu time spent up to now is      524.0 secs

     Computing kpt #:    14
     total cpu time spent up to now is      561.3 secs

     Computing kpt #:    15
     total cpu time spent up to now is      599.4 secs

     Computing kpt #:    16
     total cpu time spent up to now is      637.2 secs

     Computing kpt #:    17
     total cpu time spent up to now is      675.3 secs

     Computing kpt #:    18
     total cpu time spent up to now is      717.5 secs

     Computing kpt #:    19
     total cpu time spent up to now is      755.4 secs

     Computing kpt #:    20
     total cpu time spent up to now is      791.0 secs

     Computing kpt #:    21
     total cpu time spent up to now is      827.0 secs

     Computing kpt #:    22
     total cpu time spent up to now is      878.2 secs

     Computing kpt #:    23
     total cpu time spent up to now is      919.7 secs

     Computing kpt #:    24
     c_bands:  1 eigenvalues not converged
     total cpu time spent up to now is      970.2 secs

     Computing kpt #:    25
     c_bands:  1 eigenvalues not converged
     total cpu time spent up to now is     1020.9 secs

     Computing kpt #:    26
     c_bands:  1 eigenvalues not converged
     total cpu time spent up to now is     1070.5 secs

     Computing kpt #:    27
     total cpu time spent up to now is     1118.6 secs

     Computing kpt #:    28
     total cpu time spent up to now is     1158.0 secs

     Computing kpt #:    29
     c_bands:  1 eigenvalues not converged
     total cpu time spent up to now is     1207.5 secs

     Computing kpt #:    30
     c_bands:  1 eigenvalues not converged
     total cpu time spent up to now is     1256.9 secs

     Computing kpt #:    31
     c_bands:  1 eigenvalues not converged
     total cpu time spent up to now is     1306.2 secs

     Computing kpt #:    32
     total cpu time spent up to now is     1351.0 secs

     Computing kpt #:    33
     total cpu time spent up to now is     1390.6 secs

     Computing kpt #:    34
     total cpu time spent up to now is     1426.2 secs

     Computing kpt #:    35
     total cpu time spent up to now is     1461.9 secs

     Computing kpt #:    36
     total cpu time spent up to now is     1496.1 secs

     Computing kpt #:    37
     total cpu time spent up to now is     1531.4 secs

     Computing kpt #:    38
     total cpu time spent up to now is     1566.5 secs

     Computing kpt #:    39
     total cpu time spent up to now is     1606.2 secs

     Computing kpt #:    40
     total cpu time spent up to now is     1651.2 secs

     Computing kpt #:    41
     total cpu time spent up to now is     1696.6 secs

     Computing kpt #:    42
     total cpu time spent up to now is     1746.0 secs

     Computing kpt #:    43
     total cpu time spent up to now is     1795.4 secs

     Computing kpt #:    44
     total cpu time spent up to now is     1835.1 secs

     Computing kpt #:    45
     total cpu time spent up to now is     1885.1 secs

     Computing kpt #:    46
     total cpu time spent up to now is     1926.0 secs

     Computing kpt #:    47
     total cpu time spent up to now is     1966.8 secs

     Computing kpt #:    48
     total cpu time spent up to now is     2015.4 secs

     Computing kpt #:    49
     total cpu time spent up to now is     2050.6 secs

     Computing kpt #:    50
     total cpu time spent up to now is     2095.1 secs

     Computing kpt #:    51
     total cpu time spent up to now is     2135.0 secs

     Computing kpt #:    52
     total cpu time spent up to now is     2179.5 secs

     Computing kpt #:    53
     total cpu time spent up to now is     2219.3 secs

     Computing kpt #:    54
     total cpu time spent up to now is     2269.9 secs

     Computing kpt #:    55
     total cpu time spent up to now is     2311.1 secs

     Computing kpt #:    56
     total cpu time spent up to now is     2357.6 secs

     Computing kpt #:    57
     total cpu time spent up to now is     2399.2 secs

     Computing kpt #:    58
     total cpu time spent up to now is     2431.0 secs

     Computing kpt #:    59
     total cpu time spent up to now is     2461.7 secs

     Computing kpt #:    60
     total cpu time spent up to now is     2502.8 secs

     Computing kpt #:    61
     total cpu time spent up to now is     2543.5 secs

     Computing kpt #:    62
     total cpu time spent up to now is     2588.6 secs

     Computing kpt #:    63
     total cpu time spent up to now is     2634.7 secs

     Computing kpt #:    64
     total cpu time spent up to now is     2684.6 secs

     Computing kpt #:    65
     total cpu time spent up to now is     2731.2 secs

     Computing kpt #:    66
     total cpu time spent up to now is     2782.8 secs

     Computing kpt #:    67
     c_bands:  2 eigenvalues not converged
     total cpu time spent up to now is     2834.3 secs

     Computing kpt #:    68
     total cpu time spent up to now is     2880.3 secs

     Computing kpt #:    69
     total cpu time spent up to now is     2926.6 secs

     Computing kpt #:    70
     total cpu time spent up to now is     2964.7 secs

     Computing kpt #:    71
     total cpu time spent up to now is     3001.9 secs

     Computing kpt #:    72
     total cpu time spent up to now is     3039.0 secs

     Computing kpt #:    73
     total cpu time spent up to now is     3077.7 secs

     Computing kpt #:    74
     total cpu time spent up to now is     3116.5 secs

     Computing kpt #:    75
     total cpu time spent up to now is     3156.8 secs

     Computing kpt #:    76
     c_bands:  1 eigenvalues not converged
     total cpu time spent up to now is     3210.0 secs

     Computing kpt #:    77
     c_bands:  1 eigenvalues not converged
     total cpu time spent up to now is     3264.3 secs

     Computing kpt #:    78
     c_bands:  1 eigenvalues not converged
     total cpu time spent up to now is     3317.9 secs

     Computing kpt #:    79
     total cpu time spent up to now is     3366.5 secs

     Computing kpt #:    80
     total cpu time spent up to now is     3411.2 secs

     Computing kpt #:    81
     total cpu time spent up to now is     3452.5 secs

     Computing kpt #:    82
     total cpu time spent up to now is     3490.6 secs

     Computing kpt #:    83
     total cpu time spent up to now is     3528.4 secs

     Computing kpt #:    84
     total cpu time spent up to now is     3566.4 secs

     Computing kpt #:    85
     total cpu time spent up to now is     3604.7 secs

     Computing kpt #:    86
     total cpu time spent up to now is     3643.2 secs

     Computing kpt #:    87
     total cpu time spent up to now is     3681.8 secs

     Computing kpt #:    88
     total cpu time spent up to now is     3720.3 secs

     Computing kpt #:    89
     total cpu time spent up to now is     3766.7 secs

     Computing kpt #:    90
     total cpu time spent up to now is     3814.6 secs

     Computing kpt #:    91
     total cpu time spent up to now is     3862.2 secs

     Computing kpt #:    92
     total cpu time spent up to now is     3908.6 secs

     Computing kpt #:    93
     total cpu time spent up to now is     3955.6 secs

     Computing kpt #:    94

 %%%%%%%%%%%%%%%%%%%%%%%%%%%%%%%%%%%%%%%%%%%%%%%%%%%%%%%%%%%%%%%%%%%%%%%%%%%%%%
     Error in routine cdiaghg (463):
     S matrix not positive definite
 %%%%%%%%%%%%%%%%%%%%%%%%%%%%%%%%%%%%%%%%%%%%%%%%%%%%%%%%%%%%%%%%%%%%%%%%%%%%%%

     stopping ...
