
     Program PWSCF v.6.4 starts on  9Oct2021 at  1:31:49 

     This program is part of the open-source Quantum ESPRESSO suite
     for quantum simulation of materials; please cite
         "P. Giannozzi et al., J. Phys.:Condens. Matter 21 395502 (2009);
         "P. Giannozzi et al., J. Phys.:Condens. Matter 29 465901 (2017);
          URL http://www.quantum-espresso.org", 
     in publications or presentations arising from this work. More details at
     http://www.quantum-espresso.org/quote

     Parallel version (MPI), running on     6 processors

     MPI processes distributed on     1 nodes
     R & G space division:  proc/nbgrp/npool/nimage =       6
     Waiting for input...
     Reading input from standard input

     Current dimensions of program PWSCF are:
     Max number of different atomic species (ntypx) = 10
     Max number of k-points (npk) =  40000
     Max angular momentum in pseudopotentials (lmaxx) =  3
               file Co.rel-pbe-spn-rrkjus_psl.0.3.1.UPF: wavefunction(s)  3P 3P renormalized
               file V.rel-pbe-spnl-rrkjus_psl.1.0.0.UPF: wavefunction(s)  3P 3P 3D 3D renormalized

     Fixed quantization axis for GGA:     0.000000    0.000000    1.000000

     Subspace diagonalization in iterative solution of the eigenvalue problem:
     a serial algorithm will be used


     Parallelization info
     --------------------
     sticks:   dense  smooth     PW     G-vecs:    dense   smooth      PW
     Min        2051     821    224               150040    37984    5408
     Max        2052     822    225               150043    37988    5411
     Sum       12307    4927   1345               900247   227913   32455


     Title: 
     Co2VAl                                                                     


     bravais-lattice index     =            2
     lattice parameter (alat)  =      10.9074  a.u.
     unit-cell volume          =     324.4146 (a.u.)^3
     number of atoms/cell      =            4
     number of atomic types    =            3
     number of electrons       =        50.00
     number of Kohn-Sham states=           60
     kinetic-energy cutoff     =     300.0000  Ry
     charge density cutoff     =    3000.0000  Ry
     convergence threshold     =      1.0E-08
     mixing beta               =       0.7000
     number of iterations used =            8  plain     mixing
     Exchange-correlation      = PBE ( 1  4  3  4 0 0)
     Noncollinear calculation with spin-orbit


     celldm(1)=  10.907372  celldm(2)=   0.000000  celldm(3)=   0.000000
     celldm(4)=   0.000000  celldm(5)=   0.000000  celldm(6)=   0.000000

     crystal axes: (cart. coord. in units of alat)
               a(1) = (  -0.500000   0.000000   0.500000 )  
               a(2) = (   0.000000   0.500000   0.500000 )  
               a(3) = (  -0.500000   0.500000   0.000000 )  

     reciprocal axes: (cart. coord. in units 2 pi/alat)
               b(1) = ( -1.000000 -1.000000  1.000000 )  
               b(2) = (  1.000000  1.000000  1.000000 )  
               b(3) = ( -1.000000  1.000000 -1.000000 )  


     PseudoPot. # 1 for Co read from file:
     /home/ug2018/mst/18114017/QE_sample/Co2VAl/band_structure/Co.rel-pbe-spn-rrkjus_psl.0.3.1.UPF
     MD5 check sum: 54732febc3943127cc1391ff92b60f64
     Pseudo is Ultrasoft + core correction, Zval = 17.0
     Generated using "atomic" code by A. Dal Corso v.6.2.2
     Using radial grid of 1193 points, 10 beta functions with: 
                l(1) =   0
                l(2) =   0
                l(3) =   1
                l(4) =   1
                l(5) =   1
                l(6) =   1
                l(7) =   2
                l(8) =   2
                l(9) =   2
               l(10) =   2
     Q(r) pseudized with 0 coefficients 


     PseudoPot. # 2 for V  read from file:
     /home/ug2018/mst/18114017/QE_sample/Co2VAl/band_structure/V.rel-pbe-spnl-rrkjus_psl.1.0.0.UPF
     MD5 check sum: 74207e36087ad0a67e33b0242fb85c12
     Pseudo is Ultrasoft + core correction, Zval = 13.0
     Generated using "atomic" code by A. Dal Corso v.6.2.2
     Using radial grid of 1181 points, 10 beta functions with: 
                l(1) =   0
                l(2) =   0
                l(3) =   1
                l(4) =   1
                l(5) =   1
                l(6) =   1
                l(7) =   2
                l(8) =   2
                l(9) =   2
               l(10) =   2
     Q(r) pseudized with 0 coefficients 


     PseudoPot. # 3 for Al read from file:
     /home/ug2018/mst/18114017/QE_sample/Co2VAl/band_structure/Al.rel-pbe-nl-rrkjus_psl.1.0.0.UPF
     MD5 check sum: 49f37f8fe9babba23f1e8de5949893df
     Pseudo is Ultrasoft + core correction, Zval =  3.0
     Generated using "atomic" code by A. Dal Corso v.6.3
     Using radial grid of 1135 points,  6 beta functions with: 
                l(1) =   0
                l(2) =   0
                l(3) =   1
                l(4) =   1
                l(5) =   1
                l(6) =   1
     Q(r) pseudized with 0 coefficients 


     atomic species   valence    mass     pseudopotential
        Co            17.00    58.93319     Co( 1.00)
        V             13.00    50.94150     V ( 1.00)
        Al             3.00    26.98154     Al( 1.00)

     16 Sym. Ops., with inversion, found


                                    s                        frac. trans.

      isym =  1     identity                                     

 Time Reversal            0
 cryst.   s( 1) = (     1          0          0      )
                  (     0          1          0      )
                  (     0          0          1      )

 cart.    s( 1) = (  1.0000000  0.0000000  0.0000000 )
                  (  0.0000000  1.0000000  0.0000000 )
                  (  0.0000000  0.0000000  1.0000000 )


      isym =  2     180 deg rotation - cart. axis [0,0,1]        

 Time Reversal            0
 cryst.   s( 2) = (     0          1         -1      )
                  (     1          0         -1      )
                  (     0          0         -1      )

 cart.    s( 2) = ( -1.0000000  0.0000000  0.0000000 )
                  (  0.0000000 -1.0000000  0.0000000 )
                  (  0.0000000  0.0000000  1.0000000 )


      isym =  3     180 deg rotation - cart. axis [0,1,0]        

 Time Reversal            1
 cryst.   s( 3) = (    -1          0          0      )
                  (    -1          0          1      )
                  (    -1          1          0      )

 cart.    s( 3) = ( -1.0000000  0.0000000  0.0000000 )
                  (  0.0000000  1.0000000  0.0000000 )
                  (  0.0000000  0.0000000 -1.0000000 )


      isym =  4     180 deg rotation - cart. axis [1,0,0]        

 Time Reversal            1
 cryst.   s( 4) = (     0         -1          1      )
                  (     0         -1          0      )
                  (     1         -1          0      )

 cart.    s( 4) = (  1.0000000  0.0000000  0.0000000 )
                  (  0.0000000 -1.0000000  0.0000000 )
                  (  0.0000000  0.0000000 -1.0000000 )


      isym =  5     180 deg rotation - cart. axis [1,1,0]        

 Time Reversal            1
 cryst.   s( 5) = (     0         -1          0      )
                  (    -1          0          0      )
                  (     0          0         -1      )

 cart.    s( 5) = (  0.0000000  1.0000000  0.0000000 )
                  (  1.0000000  0.0000000  0.0000000 )
                  (  0.0000000  0.0000000 -1.0000000 )


      isym =  6     180 deg rotation - cart. axis [1,-1,0]       

 Time Reversal            1
 cryst.   s( 6) = (    -1          0          1      )
                  (     0         -1          1      )
                  (     0          0          1      )

 cart.    s( 6) = (  0.0000000 -1.0000000  0.0000000 )
                  ( -1.0000000  0.0000000  0.0000000 )
                  (  0.0000000  0.0000000 -1.0000000 )


      isym =  7      90 deg rotation - cart. axis [0,0,-1]       

 Time Reversal            0
 cryst.   s( 7) = (     0          1          0      )
                  (     0          1         -1      )
                  (    -1          1          0      )

 cart.    s( 7) = (  0.0000000  1.0000000  0.0000000 )
                  ( -1.0000000  0.0000000  0.0000000 )
                  (  0.0000000  0.0000000  1.0000000 )


      isym =  8      90 deg rotation - cart. axis [0,0,1]        

 Time Reversal            0
 cryst.   s( 8) = (     1          0         -1      )
                  (     1          0          0      )
                  (     1         -1          0      )

 cart.    s( 8) = (  0.0000000 -1.0000000  0.0000000 )
                  (  1.0000000  0.0000000  0.0000000 )
                  (  0.0000000  0.0000000  1.0000000 )


      isym =  9     inversion                                    

 Time Reversal            0
 cryst.   s( 9) = (    -1          0          0      )
                  (     0         -1          0      )
                  (     0          0         -1      )

 cart.    s( 9) = ( -1.0000000  0.0000000  0.0000000 )
                  (  0.0000000 -1.0000000  0.0000000 )
                  (  0.0000000  0.0000000 -1.0000000 )


      isym = 10     inv. 180 deg rotation - cart. axis [0,0,1]   

 Time Reversal            0
 cryst.   s(10) = (     0         -1          1      )
                  (    -1          0          1      )
                  (     0          0          1      )

 cart.    s(10) = (  1.0000000  0.0000000  0.0000000 )
                  (  0.0000000  1.0000000  0.0000000 )
                  (  0.0000000  0.0000000 -1.0000000 )


      isym = 11     inv. 180 deg rotation - cart. axis [0,1,0]   

 Time Reversal            1
 cryst.   s(11) = (     1          0          0      )
                  (     1          0         -1      )
                  (     1         -1          0      )

 cart.    s(11) = (  1.0000000  0.0000000  0.0000000 )
                  (  0.0000000 -1.0000000  0.0000000 )
                  (  0.0000000  0.0000000  1.0000000 )


      isym = 12     inv. 180 deg rotation - cart. axis [1,0,0]   

 Time Reversal            1
 cryst.   s(12) = (     0          1         -1      )
                  (     0          1          0      )
                  (    -1          1          0      )

 cart.    s(12) = ( -1.0000000  0.0000000  0.0000000 )
                  (  0.0000000  1.0000000  0.0000000 )
                  (  0.0000000  0.0000000  1.0000000 )


      isym = 13     inv. 180 deg rotation - cart. axis [1,1,0]   

 Time Reversal            1
 cryst.   s(13) = (     0          1          0      )
                  (     1          0          0      )
                  (     0          0          1      )

 cart.    s(13) = (  0.0000000 -1.0000000  0.0000000 )
                  ( -1.0000000  0.0000000  0.0000000 )
                  (  0.0000000  0.0000000  1.0000000 )


      isym = 14     inv. 180 deg rotation - cart. axis [1,-1,0]  

 Time Reversal            1
 cryst.   s(14) = (     1          0         -1      )
                  (     0          1         -1      )
                  (     0          0         -1      )

 cart.    s(14) = (  0.0000000  1.0000000  0.0000000 )
                  (  1.0000000  0.0000000  0.0000000 )
                  (  0.0000000  0.0000000  1.0000000 )


      isym = 15     inv.  90 deg rotation - cart. axis [0,0,-1]  

 Time Reversal            0
 cryst.   s(15) = (     0         -1          0      )
                  (     0         -1          1      )
                  (     1         -1          0      )

 cart.    s(15) = (  0.0000000 -1.0000000  0.0000000 )
                  (  1.0000000  0.0000000  0.0000000 )
                  (  0.0000000  0.0000000 -1.0000000 )


      isym = 16     inv.  90 deg rotation - cart. axis [0,0,1]   

 Time Reversal            0
 cryst.   s(16) = (    -1          0          1      )
                  (    -1          0          0      )
                  (    -1          1          0      )

 cart.    s(16) = (  0.0000000  1.0000000  0.0000000 )
                  ( -1.0000000  0.0000000  0.0000000 )
                  (  0.0000000  0.0000000 -1.0000000 )


     the magnetic double point group is D_4h(4/mmm) [C_4h (4/m) ]
     using the double point group C_4h (4/m) 
     there are 16 classes and  8 irreducible representations
     the character table:

       E     -E    C4    -C4   C2    -C2   C4^3  -C4^3 i     -i    S4^3  -S4^3
                                                                              
G_5+   1.00 -1.00  0.71 -0.71  0.00  0.00  0.71 -0.71  1.00 -1.00  0.71 -0.71
G_6+   1.00 -1.00  0.71 -0.71  0.00  0.00  0.71 -0.71  1.00 -1.00  0.71 -0.71
G_7+   1.00 -1.00 -0.71  0.71  0.00  0.00 -0.71  0.71  1.00 -1.00 -0.71  0.71
G_8+   1.00 -1.00 -0.71  0.71  0.00  0.00 -0.71  0.71  1.00 -1.00 -0.71  0.71
G_5-   1.00 -1.00  0.71 -0.71  0.00  0.00  0.71 -0.71 -1.00  1.00 -0.71  0.71
G_6-   1.00 -1.00  0.71 -0.71  0.00  0.00  0.71 -0.71 -1.00  1.00 -0.71  0.71
G_7-   1.00 -1.00 -0.71  0.71  0.00  0.00 -0.71  0.71 -1.00  1.00  0.71 -0.71
G_8-   1.00 -1.00 -0.71  0.71  0.00  0.00 -0.71  0.71 -1.00  1.00  0.71 -0.71

       s_h   -s_h  S4    -S4  
                              
G_5+   0.00  0.00  0.71 -0.71
G_6+   0.00  0.00  0.71 -0.71
G_7+   0.00  0.00 -0.71  0.71
G_8+   0.00  0.00 -0.71  0.71
G_5-   0.00  0.00 -0.71  0.71
G_6-   0.00  0.00 -0.71  0.71
G_7-   0.00  0.00  0.71 -0.71
G_8-   0.00  0.00  0.71 -0.71

     imaginary part

       E     -E    C4    -C4   C2    -C2   C4^3  -C4^3 i     -i    S4^3  -S4^3
                                                                              
G_5+   0.00  0.00  0.71 -0.71  1.00 -1.00 -0.71  0.71  0.00  0.00  0.71 -0.71
G_6+   0.00  0.00 -0.71  0.71 -1.00  1.00  0.71 -0.71  0.00  0.00 -0.71  0.71
G_7+   0.00  0.00 -0.71  0.71  1.00 -1.00  0.71 -0.71  0.00  0.00 -0.71  0.71
G_8+   0.00  0.00  0.71 -0.71 -1.00  1.00 -0.71  0.71  0.00  0.00  0.71 -0.71
G_5-   0.00  0.00  0.71 -0.71  1.00 -1.00 -0.71  0.71  0.00  0.00 -0.71  0.71
G_6-   0.00  0.00 -0.71  0.71 -1.00  1.00  0.71 -0.71  0.00  0.00  0.71 -0.71
G_7-   0.00  0.00 -0.71  0.71  1.00 -1.00  0.71 -0.71  0.00  0.00  0.71 -0.71
G_8-   0.00  0.00  0.71 -0.71 -1.00  1.00 -0.71  0.71  0.00  0.00 -0.71  0.71

       s_h   -s_h  S4    -S4  
                              
G_5+   1.00 -1.00 -0.71  0.71
G_6+  -1.00  1.00  0.71 -0.71
G_7+   1.00 -1.00  0.71 -0.71
G_8+  -1.00  1.00 -0.71  0.71
G_5-  -1.00  1.00  0.71 -0.71
G_6-   1.00 -1.00 -0.71  0.71
G_7-  -1.00  1.00 -0.71  0.71
G_8-   1.00 -1.00  0.71 -0.71

     the symmetry operations in each class and the name of the first element:

     E             1
          identity                                               
     -E           -1
          identity E                                             
     C4            4
           90 deg rotation - cart. axis [0,0,1]                  
     -C4          -4
           90 deg rotation - cart. axis [0,0,1] E                
     C2            2
          180 deg rotation - cart. axis [0,0,1]                  
     -C2          -2
          180 deg rotation - cart. axis [0,0,1] E                
     C4^3          3
           90 deg rotation - cart. axis [0,0,-1]                 
     -C4^3        -3
           90 deg rotation - cart. axis [0,0,-1] E               
     i             5
          inversion                                              
     -i           -5
          inversion E                                            
     S4^3          8
          inv.  90 deg rotation - cart. axis [0,0,1]             
     -S4^3        -8
          inv.  90 deg rotation - cart. axis [0,0,1] E           
     s_h           6
          inv. 180 deg rotation - cart. axis [0,0,1]             
     -s_h         -6
          inv. 180 deg rotation - cart. axis [0,0,1] E           
     S4            7
          inv.  90 deg rotation - cart. axis [0,0,-1]            
     -S4          -7
          inv.  90 deg rotation - cart. axis [0,0,-1] E          

   Cartesian axes

     site n.     atom                  positions (alat units)
         1           V   tau(   1) = (   0.0000000   0.0000000   0.0000000  )
         2           Al  tau(   2) = (   0.5000000   0.5000000   0.5000000  )
         3           Co  tau(   3) = (   0.7500000   0.7500000   0.7500000  )
         4           Co  tau(   4) = (   0.2500000   0.2500000   0.2500000  )

   Crystallographic axes

     site n.     atom                  positions (cryst. coord.)
         1           V   tau(   1) = (  0.0000000  0.0000000  0.0000000  )
         2           Al  tau(   2) = ( -0.5000000  1.5000000 -0.5000000  )
         3           Co  tau(   3) = ( -0.7500000  2.2500000 -0.7500000  )
         4           Co  tau(   4) = ( -0.2500000  0.7500000 -0.2500000  )

     number of k points=   163  Marzari-Vanderbilt smearing, width (Ry)=  0.0500
                       cart. coord. in units 2pi/alat
        k(    1) = (   0.0000000   0.0000000   0.0000000), wk =   0.0005787
        k(    2) = (  -0.0833333   0.0833333  -0.0833333), wk =   0.0046296
        k(    3) = (  -0.1666667   0.1666667  -0.1666667), wk =   0.0046296
        k(    4) = (  -0.2500000   0.2500000  -0.2500000), wk =   0.0046296
        k(    5) = (  -0.3333333   0.3333333  -0.3333333), wk =   0.0046296
        k(    6) = (  -0.4166667   0.4166667  -0.4166667), wk =   0.0046296
        k(    7) = (   0.5000000  -0.5000000   0.5000000), wk =   0.0023148
        k(    8) = (   0.0000000   0.1666667   0.0000000), wk =   0.0023148
        k(    9) = (  -0.0833333   0.2500000  -0.0833333), wk =   0.0092593
        k(   10) = (  -0.1666667   0.3333333  -0.1666667), wk =   0.0092593
        k(   11) = (  -0.2500000   0.4166667  -0.2500000), wk =   0.0092593
        k(   12) = (  -0.3333333   0.5000000  -0.3333333), wk =   0.0092593
        k(   13) = (   0.5833333  -0.4166667   0.5833333), wk =   0.0092593
        k(   14) = (   0.5000000  -0.3333333   0.5000000), wk =   0.0092593
        k(   15) = (   0.4166667  -0.2500000   0.4166667), wk =   0.0092593
        k(   16) = (   0.3333333  -0.1666667   0.3333333), wk =   0.0092593
        k(   17) = (   0.2500000  -0.0833333   0.2500000), wk =   0.0092593
        k(   18) = (   0.1666667  -0.0000000   0.1666667), wk =   0.0046296
        k(   19) = (   0.0000000   0.3333333   0.0000000), wk =   0.0023148
        k(   20) = (  -0.0833333   0.4166667  -0.0833333), wk =   0.0092593
        k(   21) = (  -0.1666667   0.5000000  -0.1666667), wk =   0.0092593
        k(   22) = (  -0.2500000   0.5833333  -0.2500000), wk =   0.0092593
        k(   23) = (   0.6666667  -0.3333333   0.6666667), wk =   0.0092593
        k(   24) = (   0.5833333  -0.2500000   0.5833333), wk =   0.0092593
        k(   25) = (   0.5000000  -0.1666667   0.5000000), wk =   0.0092593
        k(   26) = (   0.4166667  -0.0833333   0.4166667), wk =   0.0092593
        k(   27) = (   0.3333333   0.0000000   0.3333333), wk =   0.0046296
        k(   28) = (   0.0000000   0.5000000   0.0000000), wk =   0.0023148
        k(   29) = (  -0.0833333   0.5833333  -0.0833333), wk =   0.0092593
        k(   30) = (  -0.1666667   0.6666667  -0.1666667), wk =   0.0092593
        k(   31) = (   0.7500000  -0.2500000   0.7500000), wk =   0.0092593
        k(   32) = (   0.6666667  -0.1666667   0.6666667), wk =   0.0092593
        k(   33) = (   0.5833333  -0.0833333   0.5833333), wk =   0.0092593
        k(   34) = (   0.5000000   0.0000000   0.5000000), wk =   0.0046296
        k(   35) = (   0.0000000   0.6666667   0.0000000), wk =   0.0023148
        k(   36) = (  -0.0833333   0.7500000  -0.0833333), wk =   0.0092593
        k(   37) = (   0.8333333  -0.1666667   0.8333333), wk =   0.0092593
        k(   38) = (   0.7500000  -0.0833333   0.7500000), wk =   0.0092593
        k(   39) = (   0.6666667  -0.0000000   0.6666667), wk =   0.0046296
        k(   40) = (   0.0000000   0.8333333   0.0000000), wk =   0.0023148
        k(   41) = (   0.9166667  -0.0833333   0.9166667), wk =   0.0092593
        k(   42) = (   0.8333333   0.0000000   0.8333333), wk =   0.0046296
        k(   43) = (   0.0000000  -1.0000000   0.0000000), wk =   0.0011574
        k(   44) = (  -0.1666667   0.3333333   0.0000000), wk =   0.0046296
        k(   45) = (  -0.2500000   0.4166667  -0.0833333), wk =   0.0092593
        k(   46) = (  -0.3333333   0.5000000  -0.1666667), wk =   0.0092593
        k(   47) = (   0.5833333  -0.4166667   0.7500000), wk =   0.0092593
        k(   48) = (   0.5000000  -0.3333333   0.6666667), wk =   0.0092593
        k(   49) = (  -0.1666667   0.5000000   0.0000000), wk =   0.0046296
        k(   50) = (  -0.2500000   0.5833333  -0.0833333), wk =   0.0092593
        k(   51) = (   0.6666667  -0.3333333   0.8333333), wk =   0.0092593
        k(   52) = (   0.5833333  -0.2500000   0.7500000), wk =   0.0092593
        k(   53) = (   0.5000000  -0.1666667   0.6666667), wk =   0.0092593
        k(   54) = (   0.4166667  -0.0833333   0.5833333), wk =   0.0092593
        k(   55) = (   0.3333333   0.0000000   0.5000000), wk =   0.0046296
        k(   56) = (  -0.1666667   0.6666667  -0.0000000), wk =   0.0046296
        k(   57) = (   0.7500000  -0.2500000   0.9166667), wk =   0.0092593
        k(   58) = (   0.6666667  -0.1666667   0.8333333), wk =   0.0092593
        k(   59) = (   0.5833333  -0.0833333   0.7500000), wk =   0.0092593
        k(   60) = (   0.5000000   0.0000000   0.6666667), wk =   0.0046296
        k(   61) = (   0.8333333  -0.1666667   1.0000000), wk =   0.0046296
        k(   62) = (   0.7500000  -0.0833333   0.9166667), wk =   0.0092593
        k(   63) = (   0.6666667   0.0000000   0.8333333), wk =   0.0046296
        k(   64) = (  -0.1666667  -1.0000000  -0.0000000), wk =   0.0023148
        k(   65) = (   0.6666667  -0.3333333   1.0000000), wk =   0.0046296
        k(   66) = (   0.5833333  -0.2500000   0.9166667), wk =   0.0092593
        k(   67) = (   0.5000000  -0.1666667   0.8333333), wk =   0.0092593
        k(   68) = (   0.6666667  -0.1666667   1.0000000), wk =   0.0046296
        k(   69) = (   0.5833333  -0.0833333   0.9166667), wk =   0.0092593
        k(   70) = (   0.5000000   0.0000000   0.8333333), wk =   0.0046296
        k(   71) = (  -0.3333333  -1.0000000   0.0000000), wk =   0.0023148
        k(   72) = (  -0.5000000  -1.0000000   0.0000000), wk =   0.0023148
        k(   73) = (   0.0000000   0.0000000   0.1666667), wk =   0.0011574
        k(   74) = (  -0.0833333  -0.0833333   0.2500000), wk =   0.0046296
        k(   75) = (  -0.1666667  -0.1666667   0.3333333), wk =   0.0046296
        k(   76) = (  -0.2500000  -0.2500000   0.4166667), wk =   0.0046296
        k(   77) = (  -0.3333333  -0.3333333   0.5000000), wk =   0.0046296
        k(   78) = (   0.5833333   0.5833333  -0.4166667), wk =   0.0046296
        k(   79) = (   0.5000000   0.5000000  -0.3333333), wk =   0.0046296
        k(   80) = (   0.4166667   0.4166667  -0.2500000), wk =   0.0046296
        k(   81) = (   0.3333333   0.3333333  -0.1666667), wk =   0.0046296
        k(   82) = (   0.2500000   0.2500000  -0.0833333), wk =   0.0046296
        k(   83) = (   0.1666667   0.1666667  -0.0000000), wk =   0.0023148
        k(   84) = (   0.0000000   0.0000000   0.3333333), wk =   0.0011574
        k(   85) = (  -0.0833333  -0.0833333   0.4166667), wk =   0.0046296
        k(   86) = (  -0.1666667  -0.1666667   0.5000000), wk =   0.0046296
        k(   87) = (  -0.2500000  -0.2500000   0.5833333), wk =   0.0046296
        k(   88) = (   0.6666667   0.6666667  -0.3333333), wk =   0.0046296
        k(   89) = (   0.5833333   0.5833333  -0.2500000), wk =   0.0046296
        k(   90) = (   0.5000000   0.5000000  -0.1666667), wk =   0.0046296
        k(   91) = (   0.4166667   0.4166667  -0.0833333), wk =   0.0046296
        k(   92) = (   0.3333333   0.3333333   0.0000000), wk =   0.0023148
        k(   93) = (   0.0000000   0.0000000   0.5000000), wk =   0.0011574
        k(   94) = (  -0.0833333  -0.0833333   0.5833333), wk =   0.0046296
        k(   95) = (  -0.1666667  -0.1666667   0.6666667), wk =   0.0046296
        k(   96) = (   0.7500000   0.7500000  -0.2500000), wk =   0.0046296
        k(   97) = (   0.6666667   0.6666667  -0.1666667), wk =   0.0046296
        k(   98) = (   0.5833333   0.5833333  -0.0833333), wk =   0.0046296
        k(   99) = (   0.5000000   0.5000000   0.0000000), wk =   0.0023148
        k(  100) = (   0.0000000   0.0000000   0.6666667), wk =   0.0011574
        k(  101) = (  -0.0833333  -0.0833333   0.7500000), wk =   0.0046296
        k(  102) = (   0.8333333   0.8333333  -0.1666667), wk =   0.0046296
        k(  103) = (   0.7500000   0.7500000  -0.0833333), wk =   0.0046296
        k(  104) = (   0.6666667   0.6666667   0.0000000), wk =   0.0023148
        k(  105) = (   0.0000000   0.0000000   0.8333333), wk =   0.0011574
        k(  106) = (   0.9166667   0.9166667  -0.0833333), wk =   0.0046296
        k(  107) = (   0.8333333   0.8333333   0.0000000), wk =   0.0023148
        k(  108) = (   0.0000000   0.0000000  -1.0000000), wk =   0.0005787
        k(  109) = (   0.3333333   0.0000000  -0.1666667), wk =   0.0046296
        k(  110) = (   0.0000000  -0.1666667   0.3333333), wk =   0.0046296
        k(  111) = (   0.4166667  -0.0833333  -0.2500000), wk =   0.0092593
        k(  112) = (  -0.0833333  -0.2500000   0.4166667), wk =   0.0092593
        k(  113) = (   0.5000000  -0.1666667  -0.3333333), wk =   0.0092593
        k(  114) = (  -0.1666667  -0.3333333   0.5000000), wk =   0.0092593
        k(  115) = (  -0.4166667   0.7500000   0.5833333), wk =   0.0092593
        k(  116) = (   0.7500000   0.5833333  -0.4166667), wk =   0.0092593
        k(  117) = (  -0.3333333   0.6666667   0.5000000), wk =   0.0046296
        k(  118) = (   0.5000000   0.0000000  -0.1666667), wk =   0.0046296
        k(  119) = (   0.0000000  -0.1666667   0.5000000), wk =   0.0046296
        k(  120) = (   0.5833333  -0.0833333  -0.2500000), wk =   0.0092593
        k(  121) = (  -0.0833333  -0.2500000   0.5833333), wk =   0.0092593
        k(  122) = (  -0.3333333   0.8333333   0.6666667), wk =   0.0092593
        k(  123) = (   0.8333333   0.6666667  -0.3333333), wk =   0.0092593
        k(  124) = (  -0.2500000   0.7500000   0.5833333), wk =   0.0092593
        k(  125) = (   0.7500000   0.5833333  -0.2500000), wk =   0.0092593
        k(  126) = (  -0.1666667   0.6666667   0.5000000), wk =   0.0092593
        k(  127) = (   0.6666667   0.5000000  -0.1666667), wk =   0.0092593
        k(  128) = (  -0.0833333   0.5833333   0.4166667), wk =   0.0092593
        k(  129) = (   0.5833333   0.4166667  -0.0833333), wk =   0.0092593
        k(  130) = (   0.0000000   0.5000000   0.3333333), wk =   0.0046296
        k(  131) = (   0.5000000   0.3333333   0.0000000), wk =   0.0046296
        k(  132) = (   0.6666667  -0.0000000  -0.1666667), wk =   0.0046296
        k(  133) = (  -0.0000000  -0.1666667   0.6666667), wk =   0.0046296
        k(  134) = (  -0.2500000   0.9166667   0.7500000), wk =   0.0092593
        k(  135) = (   0.9166667   0.7500000  -0.2500000), wk =   0.0092593
        k(  136) = (  -0.1666667   0.8333333   0.6666667), wk =   0.0092593
        k(  137) = (   0.8333333   0.6666667  -0.1666667), wk =   0.0092593
        k(  138) = (  -0.0833333   0.7500000   0.5833333), wk =   0.0092593
        k(  139) = (   0.7500000   0.5833333  -0.0833333), wk =   0.0092593
        k(  140) = (  -0.0000000   0.6666667   0.5000000), wk =   0.0046296
        k(  141) = (   0.6666667   0.5000000   0.0000000), wk =   0.0046296
        k(  142) = (  -0.1666667   1.0000000   0.8333333), wk =   0.0046296
        k(  143) = (   1.0000000   0.8333333  -0.1666667), wk =   0.0046296
        k(  144) = (  -0.0833333   0.9166667   0.7500000), wk =   0.0092593
        k(  145) = (   0.9166667   0.7500000  -0.0833333), wk =   0.0092593
        k(  146) = (  -0.0000000   0.8333333   0.6666667), wk =   0.0046296
        k(  147) = (   0.8333333   0.6666667   0.0000000), wk =   0.0046296
        k(  148) = (  -1.0000000   0.0000000  -0.1666667), wk =   0.0023148
        k(  149) = (  -0.0000000  -0.1666667  -1.0000000), wk =   0.0023148
        k(  150) = (  -0.3333333   1.0000000   0.6666667), wk =   0.0046296
        k(  151) = (   1.0000000   0.6666667  -0.3333333), wk =   0.0046296
        k(  152) = (  -0.2500000   0.9166667   0.5833333), wk =   0.0092593
        k(  153) = (   0.9166667   0.5833333  -0.2500000), wk =   0.0092593
        k(  154) = (  -0.1666667   0.8333333   0.5000000), wk =   0.0046296
        k(  155) = (  -0.1666667   1.0000000   0.6666667), wk =   0.0046296
        k(  156) = (   1.0000000   0.6666667  -0.1666667), wk =   0.0046296
        k(  157) = (  -0.0833333   0.9166667   0.5833333), wk =   0.0092593
        k(  158) = (   0.9166667   0.5833333  -0.0833333), wk =   0.0092593
        k(  159) = (   0.0000000   0.8333333   0.5000000), wk =   0.0046296
        k(  160) = (   0.8333333   0.5000000   0.0000000), wk =   0.0046296
        k(  161) = (  -1.0000000   0.0000000  -0.3333333), wk =   0.0023148
        k(  162) = (   0.0000000  -0.3333333  -1.0000000), wk =   0.0023148
        k(  163) = (  -1.0000000   0.0000000  -0.5000000), wk =   0.0011574

                       cryst. coord.
        k(    1) = (   0.0000000   0.0000000   0.0000000), wk =   0.0005787
        k(    2) = (   0.0000000   0.0000000   0.0833333), wk =   0.0046296
        k(    3) = (   0.0000000   0.0000000   0.1666667), wk =   0.0046296
        k(    4) = (   0.0000000   0.0000000   0.2500000), wk =   0.0046296
        k(    5) = (   0.0000000   0.0000000   0.3333333), wk =   0.0046296
        k(    6) = (   0.0000000   0.0000000   0.4166667), wk =   0.0046296
        k(    7) = (   0.0000000   0.0000000  -0.5000000), wk =   0.0023148
        k(    8) = (   0.0000000   0.0833333   0.0833333), wk =   0.0023148
        k(    9) = (   0.0000000   0.0833333   0.1666667), wk =   0.0092593
        k(   10) = (   0.0000000   0.0833333   0.2500000), wk =   0.0092593
        k(   11) = (   0.0000000   0.0833333   0.3333333), wk =   0.0092593
        k(   12) = (   0.0000000   0.0833333   0.4166667), wk =   0.0092593
        k(   13) = (   0.0000000   0.0833333  -0.5000000), wk =   0.0092593
        k(   14) = (   0.0000000   0.0833333  -0.4166667), wk =   0.0092593
        k(   15) = (   0.0000000   0.0833333  -0.3333333), wk =   0.0092593
        k(   16) = (   0.0000000   0.0833333  -0.2500000), wk =   0.0092593
        k(   17) = (   0.0000000   0.0833333  -0.1666667), wk =   0.0092593
        k(   18) = (   0.0000000   0.0833333  -0.0833333), wk =   0.0046296
        k(   19) = (   0.0000000   0.1666667   0.1666667), wk =   0.0023148
        k(   20) = (   0.0000000   0.1666667   0.2500000), wk =   0.0092593
        k(   21) = (   0.0000000   0.1666667   0.3333333), wk =   0.0092593
        k(   22) = (   0.0000000   0.1666667   0.4166667), wk =   0.0092593
        k(   23) = (   0.0000000   0.1666667  -0.5000000), wk =   0.0092593
        k(   24) = (   0.0000000   0.1666667  -0.4166667), wk =   0.0092593
        k(   25) = (   0.0000000   0.1666667  -0.3333333), wk =   0.0092593
        k(   26) = (   0.0000000   0.1666667  -0.2500000), wk =   0.0092593
        k(   27) = (   0.0000000   0.1666667  -0.1666667), wk =   0.0046296
        k(   28) = (   0.0000000   0.2500000   0.2500000), wk =   0.0023148
        k(   29) = (   0.0000000   0.2500000   0.3333333), wk =   0.0092593
        k(   30) = (   0.0000000   0.2500000   0.4166667), wk =   0.0092593
        k(   31) = (   0.0000000   0.2500000  -0.5000000), wk =   0.0092593
        k(   32) = (   0.0000000   0.2500000  -0.4166667), wk =   0.0092593
        k(   33) = (   0.0000000   0.2500000  -0.3333333), wk =   0.0092593
        k(   34) = (   0.0000000   0.2500000  -0.2500000), wk =   0.0046296
        k(   35) = (   0.0000000   0.3333333   0.3333333), wk =   0.0023148
        k(   36) = (   0.0000000   0.3333333   0.4166667), wk =   0.0092593
        k(   37) = (   0.0000000   0.3333333  -0.5000000), wk =   0.0092593
        k(   38) = (   0.0000000   0.3333333  -0.4166667), wk =   0.0092593
        k(   39) = (   0.0000000   0.3333333  -0.3333333), wk =   0.0046296
        k(   40) = (   0.0000000   0.4166667   0.4166667), wk =   0.0023148
        k(   41) = (   0.0000000   0.4166667  -0.5000000), wk =   0.0092593
        k(   42) = (   0.0000000   0.4166667  -0.4166667), wk =   0.0046296
        k(   43) = (   0.0000000  -0.5000000  -0.5000000), wk =   0.0011574
        k(   44) = (   0.0833333   0.1666667   0.2500000), wk =   0.0046296
        k(   45) = (   0.0833333   0.1666667   0.3333333), wk =   0.0092593
        k(   46) = (   0.0833333   0.1666667   0.4166667), wk =   0.0092593
        k(   47) = (   0.0833333   0.1666667  -0.5000000), wk =   0.0092593
        k(   48) = (   0.0833333   0.1666667  -0.4166667), wk =   0.0092593
        k(   49) = (   0.0833333   0.2500000   0.3333333), wk =   0.0046296
        k(   50) = (   0.0833333   0.2500000   0.4166667), wk =   0.0092593
        k(   51) = (   0.0833333   0.2500000  -0.5000000), wk =   0.0092593
        k(   52) = (   0.0833333   0.2500000  -0.4166667), wk =   0.0092593
        k(   53) = (   0.0833333   0.2500000  -0.3333333), wk =   0.0092593
        k(   54) = (   0.0833333   0.2500000  -0.2500000), wk =   0.0092593
        k(   55) = (   0.0833333   0.2500000  -0.1666667), wk =   0.0046296
        k(   56) = (   0.0833333   0.3333333   0.4166667), wk =   0.0046296
        k(   57) = (   0.0833333   0.3333333  -0.5000000), wk =   0.0092593
        k(   58) = (   0.0833333   0.3333333  -0.4166667), wk =   0.0092593
        k(   59) = (   0.0833333   0.3333333  -0.3333333), wk =   0.0092593
        k(   60) = (   0.0833333   0.3333333  -0.2500000), wk =   0.0046296
        k(   61) = (   0.0833333   0.4166667  -0.5000000), wk =   0.0046296
        k(   62) = (   0.0833333   0.4166667  -0.4166667), wk =   0.0092593
        k(   63) = (   0.0833333   0.4166667  -0.3333333), wk =   0.0046296
        k(   64) = (   0.0833333  -0.5000000  -0.4166667), wk =   0.0023148
        k(   65) = (   0.1666667   0.3333333  -0.5000000), wk =   0.0046296
        k(   66) = (   0.1666667   0.3333333  -0.4166667), wk =   0.0092593
        k(   67) = (   0.1666667   0.3333333  -0.3333333), wk =   0.0092593
        k(   68) = (   0.1666667   0.4166667  -0.4166667), wk =   0.0046296
        k(   69) = (   0.1666667   0.4166667  -0.3333333), wk =   0.0092593
        k(   70) = (   0.1666667   0.4166667  -0.2500000), wk =   0.0046296
        k(   71) = (   0.1666667  -0.5000000  -0.3333333), wk =   0.0023148
        k(   72) = (   0.2500000  -0.5000000  -0.2500000), wk =   0.0023148
        k(   73) = (   0.0833333   0.0833333   0.0000000), wk =   0.0011574
        k(   74) = (   0.1666667   0.0833333   0.0000000), wk =   0.0046296
        k(   75) = (   0.2500000   0.0833333   0.0000000), wk =   0.0046296
        k(   76) = (   0.3333333   0.0833333   0.0000000), wk =   0.0046296
        k(   77) = (   0.4166667   0.0833333   0.0000000), wk =   0.0046296
        k(   78) = (  -0.5000000   0.0833333   0.0000000), wk =   0.0046296
        k(   79) = (  -0.4166667   0.0833333   0.0000000), wk =   0.0046296
        k(   80) = (  -0.3333333   0.0833333   0.0000000), wk =   0.0046296
        k(   81) = (  -0.2500000   0.0833333   0.0000000), wk =   0.0046296
        k(   82) = (  -0.1666667   0.0833333   0.0000000), wk =   0.0046296
        k(   83) = (  -0.0833333   0.0833333   0.0000000), wk =   0.0023148
        k(   84) = (   0.1666667   0.1666667   0.0000000), wk =   0.0011574
        k(   85) = (   0.2500000   0.1666667   0.0000000), wk =   0.0046296
        k(   86) = (   0.3333333   0.1666667   0.0000000), wk =   0.0046296
        k(   87) = (   0.4166667   0.1666667   0.0000000), wk =   0.0046296
        k(   88) = (  -0.5000000   0.1666667   0.0000000), wk =   0.0046296
        k(   89) = (  -0.4166667   0.1666667   0.0000000), wk =   0.0046296
        k(   90) = (  -0.3333333   0.1666667   0.0000000), wk =   0.0046296
        k(   91) = (  -0.2500000   0.1666667   0.0000000), wk =   0.0046296
        k(   92) = (  -0.1666667   0.1666667   0.0000000), wk =   0.0023148
        k(   93) = (   0.2500000   0.2500000   0.0000000), wk =   0.0011574
        k(   94) = (   0.3333333   0.2500000   0.0000000), wk =   0.0046296
        k(   95) = (   0.4166667   0.2500000   0.0000000), wk =   0.0046296
        k(   96) = (  -0.5000000   0.2500000   0.0000000), wk =   0.0046296
        k(   97) = (  -0.4166667   0.2500000   0.0000000), wk =   0.0046296
        k(   98) = (  -0.3333333   0.2500000   0.0000000), wk =   0.0046296
        k(   99) = (  -0.2500000   0.2500000   0.0000000), wk =   0.0023148
        k(  100) = (   0.3333333   0.3333333   0.0000000), wk =   0.0011574
        k(  101) = (   0.4166667   0.3333333   0.0000000), wk =   0.0046296
        k(  102) = (  -0.5000000   0.3333333   0.0000000), wk =   0.0046296
        k(  103) = (  -0.4166667   0.3333333   0.0000000), wk =   0.0046296
        k(  104) = (  -0.3333333   0.3333333   0.0000000), wk =   0.0023148
        k(  105) = (   0.4166667   0.4166667   0.0000000), wk =   0.0011574
        k(  106) = (  -0.5000000   0.4166667   0.0000000), wk =   0.0046296
        k(  107) = (  -0.4166667   0.4166667   0.0000000), wk =   0.0023148
        k(  108) = (  -0.5000000  -0.5000000   0.0000000), wk =   0.0005787
        k(  109) = (  -0.2500000  -0.0833333  -0.1666667), wk =   0.0046296
        k(  110) = (   0.1666667   0.0833333  -0.0833333), wk =   0.0046296
        k(  111) = (  -0.3333333  -0.1666667  -0.2500000), wk =   0.0092593
        k(  112) = (   0.2500000   0.0833333  -0.0833333), wk =   0.0092593
        k(  113) = (  -0.4166667  -0.2500000  -0.3333333), wk =   0.0092593
        k(  114) = (   0.3333333   0.0833333  -0.0833333), wk =   0.0092593
        k(  115) = (   0.5000000   0.6666667   0.5833333), wk =   0.0092593
        k(  116) = (  -0.5833333   0.0833333  -0.0833333), wk =   0.0092593
        k(  117) = (   0.4166667   0.5833333   0.5000000), wk =   0.0046296
        k(  118) = (  -0.3333333  -0.0833333  -0.2500000), wk =   0.0046296
        k(  119) = (   0.2500000   0.1666667  -0.0833333), wk =   0.0046296
        k(  120) = (  -0.4166667  -0.1666667  -0.3333333), wk =   0.0092593
        k(  121) = (   0.3333333   0.1666667  -0.0833333), wk =   0.0092593
        k(  122) = (   0.5000000   0.7500000   0.5833333), wk =   0.0092593
        k(  123) = (  -0.5833333   0.1666667  -0.0833333), wk =   0.0092593
        k(  124) = (   0.4166667   0.6666667   0.5000000), wk =   0.0092593
        k(  125) = (  -0.5000000   0.1666667  -0.0833333), wk =   0.0092593
        k(  126) = (   0.3333333   0.5833333   0.4166667), wk =   0.0092593
        k(  127) = (  -0.4166667   0.1666667  -0.0833333), wk =   0.0092593
        k(  128) = (   0.2500000   0.5000000   0.3333333), wk =   0.0092593
        k(  129) = (  -0.3333333   0.1666667  -0.0833333), wk =   0.0092593
        k(  130) = (   0.1666667   0.4166667   0.2500000), wk =   0.0046296
        k(  131) = (  -0.2500000   0.1666667  -0.0833333), wk =   0.0046296
        k(  132) = (  -0.4166667  -0.0833333  -0.3333333), wk =   0.0046296
        k(  133) = (   0.3333333   0.2500000  -0.0833333), wk =   0.0046296
        k(  134) = (   0.5000000   0.8333333   0.5833333), wk =   0.0092593
        k(  135) = (  -0.5833333   0.2500000  -0.0833333), wk =   0.0092593
        k(  136) = (   0.4166667   0.7500000   0.5000000), wk =   0.0092593
        k(  137) = (  -0.5000000   0.2500000  -0.0833333), wk =   0.0092593
        k(  138) = (   0.3333333   0.6666667   0.4166667), wk =   0.0092593
        k(  139) = (  -0.4166667   0.2500000  -0.0833333), wk =   0.0092593
        k(  140) = (   0.2500000   0.5833333   0.3333333), wk =   0.0046296
        k(  141) = (  -0.3333333   0.2500000  -0.0833333), wk =   0.0046296
        k(  142) = (   0.5000000   0.9166667   0.5833333), wk =   0.0046296
        k(  143) = (  -0.5833333   0.3333333  -0.0833333), wk =   0.0046296
        k(  144) = (   0.4166667   0.8333333   0.5000000), wk =   0.0092593
        k(  145) = (  -0.5000000   0.3333333  -0.0833333), wk =   0.0092593
        k(  146) = (   0.3333333   0.7500000   0.4166667), wk =   0.0046296
        k(  147) = (  -0.4166667   0.3333333  -0.0833333), wk =   0.0046296
        k(  148) = (   0.4166667  -0.0833333   0.5000000), wk =   0.0023148
        k(  149) = (  -0.5000000  -0.5833333  -0.0833333), wk =   0.0023148
        k(  150) = (   0.5000000   0.8333333   0.6666667), wk =   0.0046296
        k(  151) = (  -0.6666667   0.1666667  -0.1666667), wk =   0.0046296
        k(  152) = (   0.4166667   0.7500000   0.5833333), wk =   0.0092593
        k(  153) = (  -0.5833333   0.1666667  -0.1666667), wk =   0.0092593
        k(  154) = (   0.3333333   0.6666667   0.5000000), wk =   0.0046296
        k(  155) = (   0.4166667   0.8333333   0.5833333), wk =   0.0046296
        k(  156) = (  -0.5833333   0.2500000  -0.1666667), wk =   0.0046296
        k(  157) = (   0.3333333   0.7500000   0.5000000), wk =   0.0092593
        k(  158) = (  -0.5000000   0.2500000  -0.1666667), wk =   0.0092593
        k(  159) = (   0.2500000   0.6666667   0.4166667), wk =   0.0046296
        k(  160) = (  -0.4166667   0.2500000  -0.1666667), wk =   0.0046296
        k(  161) = (   0.3333333  -0.1666667   0.5000000), wk =   0.0023148
        k(  162) = (  -0.5000000  -0.6666667  -0.1666667), wk =   0.0023148
        k(  163) = (   0.2500000  -0.2500000   0.5000000), wk =   0.0011574

     Dense  grid:   900247 G-vectors     FFT dimensions: ( 135, 135, 135)

     Smooth grid:   227913 G-vectors     FFT dimensions: (  90,  90,  90)

     Dynamical RAM for                 wfc:       8.69 MB

     Dynamical RAM for     wfc (w. buffer):    1424.59 MB

     Dynamical RAM for           str. fact:       6.87 MB

     Dynamical RAM for           local pot:       0.00 MB

     Dynamical RAM for          nlocal pot:       8.40 MB

     Dynamical RAM for                qrad:      59.87 MB

     Dynamical RAM for          rho,v,vnew:      65.85 MB

     Dynamical RAM for               rhoin:      21.95 MB

     Dynamical RAM for            rho*nmix:     146.52 MB

     Dynamical RAM for           G-vectors:       8.88 MB

     Dynamical RAM for          h,s,v(r/c):       2.64 MB

     Dynamical RAM for          <psi|beta>:       0.21 MB

     Dynamical RAM for                 psi:      34.75 MB

     Dynamical RAM for                hpsi:      34.75 MB

     Dynamical RAM for                spsi:      34.75 MB

     Dynamical RAM for      wfcinit/wfcrot:      14.87 MB

     Dynamical RAM for           addusdens:    1408.01 MB

     Estimated static dynamical RAM per process >       1.74 GB

     Estimated max dynamical RAM per process >       3.11 GB

     Estimated total dynamical RAM >      18.67 GB
     Generating pointlists ...
     new r_m :   0.1786 (alat units)  1.9483 (a.u.) for type    1
     new r_m :   0.1786 (alat units)  1.9483 (a.u.) for type    2
     new r_m :   0.1786 (alat units)  1.9483 (a.u.) for type    3

     Initial potential from superposition of free atoms

     starting charge   49.99626, renormalised to   50.00000

 ==============================================================================
     atom number    1 relative position :    0.0000   0.0000   0.0000
     charge :    11.205483
     magnetization :          0.000000    0.000000    3.121046
     magnetization/charge:    0.000000    0.000000    0.278528
     polar coord.: r, theta, phi [deg] :     3.121046    0.000000  360.000000

 ==============================================================================

 ==============================================================================
     atom number    2 relative position :    0.5000   0.5000   0.5000
     charge :     1.523266
     magnetization :          0.000000    0.000000    0.131302
     magnetization/charge:    0.000000    0.000000    0.086198
     polar coord.: r, theta, phi [deg] :     0.131302    0.000000  360.000000

 ==============================================================================

 ==============================================================================
     atom number    3 relative position :    0.7500   0.7500   0.7500
     charge :    15.652466
     magnetization :          0.000000    0.000000   -4.428756
     magnetization/charge:    0.000000    0.000000   -0.282943
     polar coord.: r, theta, phi [deg] :     4.428756  180.000000  360.000000

 ==============================================================================

 ==============================================================================
     atom number    4 relative position :    0.2500   0.2500   0.2500
     charge :    15.652466
     magnetization :          0.000000    0.000000   -4.428756
     magnetization/charge:    0.000000    0.000000   -0.282943
     polar coord.: r, theta, phi [deg] :     4.428756  180.000000  360.000000

 ==============================================================================
     Starting wfcs are   68 randomized atomic wfcs

     total cpu time spent up to now is      305.0 secs

     Self-consistent Calculation

     iteration #  1     ecut=   300.00 Ry     beta= 0.70
     Davidson diagonalization with overlap
     ethr =  1.00E-02,  avg # of iterations =  3.5

     total cpu time spent up to now is     1149.3 secs

     total energy              =    -733.64384864 Ry
     Harris-Foulkes estimate   =    -733.35056676 Ry
     estimated scf accuracy    <       0.61368675 Ry

     total magnetization       =     0.00     0.00    -2.32 Bohr mag/cell
     absolute magnetization    =     6.60 Bohr mag/cell

     iteration #  2     ecut=   300.00 Ry     beta= 0.70
     Davidson diagonalization with overlap
     ethr =  1.23E-03,  avg # of iterations =  3.2

     total cpu time spent up to now is     1892.7 secs

     total energy              =    -733.59766254 Ry
     Harris-Foulkes estimate   =    -733.74343613 Ry
     estimated scf accuracy    <       0.49048491 Ry

     total magnetization       =    -0.00    -0.00    -1.38 Bohr mag/cell
     absolute magnetization    =     5.06 Bohr mag/cell

     iteration #  3     ecut=   300.00 Ry     beta= 0.70
     Davidson diagonalization with overlap
     ethr =  9.81E-04,  avg # of iterations =  4.5

     total cpu time spent up to now is     2861.6 secs

     total energy              =    -732.97108223 Ry
     Harris-Foulkes estimate   =    -734.39675427 Ry
     estimated scf accuracy    <      13.13749755 Ry

     total magnetization       =    -0.00     0.00    -4.75 Bohr mag/cell
     absolute magnetization    =     6.69 Bohr mag/cell

     iteration #  4     ecut=   300.00 Ry     beta= 0.70
     Davidson diagonalization with overlap
     ethr =  9.81E-04,  avg # of iterations =  5.4

     total cpu time spent up to now is     3805.5 secs

     total energy              =    -733.78646652 Ry
     Harris-Foulkes estimate   =    -733.88358219 Ry
     estimated scf accuracy    <       0.46447925 Ry

     total magnetization       =    -0.00     0.00    -1.56 Bohr mag/cell
     absolute magnetization    =     3.65 Bohr mag/cell

     iteration #  5     ecut=   300.00 Ry     beta= 0.70
     Davidson diagonalization with overlap
     ethr =  9.29E-04,  avg # of iterations =  3.4

     total cpu time spent up to now is     4530.6 secs

     total energy              =    -733.83177698 Ry
     Harris-Foulkes estimate   =    -733.83261565 Ry
     estimated scf accuracy    <       0.03192185 Ry

     total magnetization       =     0.00    -0.00    -1.35 Bohr mag/cell
     absolute magnetization    =     3.23 Bohr mag/cell

     iteration #  6     ecut=   300.00 Ry     beta= 0.70
     Davidson diagonalization with overlap
     ethr =  6.38E-05,  avg # of iterations =  5.3

     total cpu time spent up to now is     5552.0 secs

     total energy              =    -733.85182929 Ry
     Harris-Foulkes estimate   =    -733.85525474 Ry
     estimated scf accuracy    <       0.02474806 Ry

     total magnetization       =    -0.00    -0.00    -1.29 Bohr mag/cell
     absolute magnetization    =     2.59 Bohr mag/cell

     iteration #  7     ecut=   300.00 Ry     beta= 0.70
     Davidson diagonalization with overlap
     ethr =  4.95E-05,  avg # of iterations =  1.0

     total cpu time spent up to now is     6221.0 secs

     total energy              =    -733.85007350 Ry
     Harris-Foulkes estimate   =    -733.85326434 Ry
     estimated scf accuracy    <       0.00747013 Ry

     total magnetization       =     0.00     0.00    -1.29 Bohr mag/cell
     absolute magnetization    =     2.38 Bohr mag/cell

     iteration #  8     ecut=   300.00 Ry     beta= 0.70
     Davidson diagonalization with overlap
     ethr =  1.49E-05,  avg # of iterations =  4.9

     total cpu time spent up to now is     7193.0 secs

     total energy              =    -733.85750144 Ry
     Harris-Foulkes estimate   =    -733.85802334 Ry
     estimated scf accuracy    <       0.01095233 Ry

     total magnetization       =    -0.00    -0.00    -1.24 Bohr mag/cell
     absolute magnetization    =     1.86 Bohr mag/cell

     iteration #  9     ecut=   300.00 Ry     beta= 0.70
     Davidson diagonalization with overlap
     ethr =  1.49E-05,  avg # of iterations =  1.0

     total cpu time spent up to now is     7861.7 secs

     total energy              =    -733.85562904 Ry
     Harris-Foulkes estimate   =    -733.85772082 Ry
     estimated scf accuracy    <       0.00939967 Ry

     total magnetization       =     0.00     0.00    -1.21 Bohr mag/cell
     absolute magnetization    =     1.75 Bohr mag/cell

     iteration # 10     ecut=   300.00 Ry     beta= 0.70
     Davidson diagonalization with overlap
     ethr =  1.49E-05,  avg # of iterations =  3.9

     total cpu time spent up to now is     8626.2 secs

     total energy              =    -733.85755518 Ry
     Harris-Foulkes estimate   =    -733.85692700 Ry
     estimated scf accuracy    <       0.00045401 Ry

     total magnetization       =     0.00    -0.00    -1.14 Bohr mag/cell
     absolute magnetization    =     1.57 Bohr mag/cell

     iteration # 11     ecut=   300.00 Ry     beta= 0.70
     Davidson diagonalization with overlap
     c_bands:  1 eigenvalues not converged
     ethr =  9.08E-07,  avg # of iterations =  4.6

     total cpu time spent up to now is     9860.0 secs

     total energy              =    -733.85361603 Ry
     Harris-Foulkes estimate   =    -733.85952013 Ry
     estimated scf accuracy    <       0.01732374 Ry

     total magnetization       =    -0.00    -0.00    -1.20 Bohr mag/cell
     absolute magnetization    =     1.65 Bohr mag/cell

     iteration # 12     ecut=   300.00 Ry     beta= 0.70
     Davidson diagonalization with overlap
     ethr =  9.08E-07,  avg # of iterations =  5.1

     total cpu time spent up to now is    11113.1 secs

     total energy              =    -733.85744714 Ry
     Harris-Foulkes estimate   =    -733.85745079 Ry
     estimated scf accuracy    <       0.00009162 Ry

     total magnetization       =    -0.00     0.00    -1.03 Bohr mag/cell
     absolute magnetization    =     1.27 Bohr mag/cell

     iteration # 13     ecut=   300.00 Ry     beta= 0.70
     Davidson diagonalization with overlap
     ethr =  1.83E-07,  avg # of iterations =  2.3

     total cpu time spent up to now is    11798.0 secs

     total energy              =    -733.85727363 Ry
     Harris-Foulkes estimate   =    -733.85744992 Ry
     estimated scf accuracy    <       0.00006929 Ry

     total magnetization       =     0.00    -0.00    -1.03 Bohr mag/cell
     absolute magnetization    =     1.28 Bohr mag/cell

     iteration # 14     ecut=   300.00 Ry     beta= 0.70
     Davidson diagonalization with overlap
     ethr =  1.39E-07,  avg # of iterations =  4.8

     total cpu time spent up to now is    12795.3 secs

     total energy              =    -733.85742817 Ry
     Harris-Foulkes estimate   =    -733.85743455 Ry
     estimated scf accuracy    <       0.00005265 Ry

     total magnetization       =    -0.00    -0.00    -0.98 Bohr mag/cell
     absolute magnetization    =     1.19 Bohr mag/cell

     iteration # 15     ecut=   300.00 Ry     beta= 0.70
     Davidson diagonalization with overlap
     ethr =  1.05E-07,  avg # of iterations =  4.4

     total cpu time spent up to now is    13725.7 secs

     total energy              =    -733.85745983 Ry
     Harris-Foulkes estimate   =    -733.85746864 Ry
     estimated scf accuracy    <       0.00004286 Ry

     total magnetization       =     0.00     0.00    -0.98 Bohr mag/cell
     absolute magnetization    =     1.22 Bohr mag/cell

     iteration # 16     ecut=   300.00 Ry     beta= 0.70
     Davidson diagonalization with overlap
     ethr =  8.57E-08,  avg # of iterations =  4.7

     total cpu time spent up to now is    14672.8 secs

     total energy              =    -733.85747752 Ry
     Harris-Foulkes estimate   =    -733.85748442 Ry
     estimated scf accuracy    <       0.00000692 Ry

     total magnetization       =     0.00    -0.00    -0.98 Bohr mag/cell
     absolute magnetization    =     1.23 Bohr mag/cell

     iteration # 17     ecut=   300.00 Ry     beta= 0.70
     Davidson diagonalization with overlap
     ethr =  1.38E-08,  avg # of iterations =  5.3

     total cpu time spent up to now is    15903.2 secs

     total energy              =    -733.85753855 Ry
     Harris-Foulkes estimate   =    -733.85753495 Ry
     estimated scf accuracy    <       0.00000131 Ry

     total magnetization       =    -0.00    -0.00    -0.98 Bohr mag/cell
     absolute magnetization    =     1.25 Bohr mag/cell

     iteration # 18     ecut=   300.00 Ry     beta= 0.70
     Davidson diagonalization with overlap
     ethr =  2.62E-09,  avg # of iterations =  3.1

     total cpu time spent up to now is    16686.0 secs

     total energy              =    -733.85741101 Ry
     Harris-Foulkes estimate   =    -733.85753880 Ry
     estimated scf accuracy    <       0.00000071 Ry

     total magnetization       =     0.00    -0.00    -0.98 Bohr mag/cell
     absolute magnetization    =     1.25 Bohr mag/cell

     iteration # 19     ecut=   300.00 Ry     beta= 0.70
     Davidson diagonalization with overlap
     ethr =  1.42E-09,  avg # of iterations =  9.1

     total cpu time spent up to now is    18186.4 secs

     total energy              =    -733.85747586 Ry
     Harris-Foulkes estimate   =    -733.85748511 Ry
     estimated scf accuracy    <       0.00000232 Ry

     total magnetization       =    -0.00     0.00    -0.99 Bohr mag/cell
     absolute magnetization    =     1.26 Bohr mag/cell

     iteration # 20     ecut=   300.00 Ry     beta= 0.70
     Davidson diagonalization with overlap
     ethr =  1.42E-09,  avg # of iterations =  5.2

     total cpu time spent up to now is    19411.5 secs

     total energy              =    -733.85748155 Ry
     Harris-Foulkes estimate   =    -733.85748253 Ry
     estimated scf accuracy    <       0.00000018 Ry

     total magnetization       =    -0.00    -0.00    -0.98 Bohr mag/cell
     absolute magnetization    =     1.25 Bohr mag/cell

     iteration # 21     ecut=   300.00 Ry     beta= 0.70
     Davidson diagonalization with overlap
     ethr =  3.68E-10,  avg # of iterations =  5.2

     total cpu time spent up to now is    20610.5 secs

     total energy              =    -733.85748211 Ry
     Harris-Foulkes estimate   =    -733.85748247 Ry
     estimated scf accuracy    <       0.00000003 Ry

     total magnetization       =    -0.00     0.00    -0.98 Bohr mag/cell
     absolute magnetization    =     1.25 Bohr mag/cell

     iteration # 22     ecut=   300.00 Ry     beta= 0.70
     Davidson diagonalization with overlap
     c_bands:  1 eigenvalues not converged
     c_bands:  1 eigenvalues not converged
     c_bands:  1 eigenvalues not converged
     ethr =  5.20E-11,  avg # of iterations =  7.5

     total cpu time spent up to now is    21982.2 secs

     total energy              =    -733.85748096 Ry
     Harris-Foulkes estimate   =    -733.85748290 Ry
     estimated scf accuracy    <       0.00000002 Ry

     total magnetization       =    -0.00     0.00    -0.98 Bohr mag/cell
     absolute magnetization    =     1.24 Bohr mag/cell

     iteration # 23     ecut=   300.00 Ry     beta= 0.70
     Davidson diagonalization with overlap
     ethr =  3.43E-11,  avg # of iterations =  8.2

     total cpu time spent up to now is    23406.1 secs

     total energy              =    -733.85748112 Ry
     Harris-Foulkes estimate   =    -733.85748198 Ry
     estimated scf accuracy    <       0.00000001 Ry

     total magnetization       =    -0.00    -0.00    -0.98 Bohr mag/cell
     absolute magnetization    =     1.25 Bohr mag/cell

     iteration # 24     ecut=   300.00 Ry     beta= 0.70
     Davidson diagonalization with overlap
     ethr =  2.35E-11,  avg # of iterations =  5.7

 ==============================================================================
     atom number    1 relative position :    0.0000   0.0000   0.0000
     charge :    10.992228
     magnetization :         -0.000000   -0.000000   -0.035631
     magnetization/charge:   -0.000000   -0.000000   -0.003241
     polar coord.: r, theta, phi [deg] :     0.035631  180.000000  360.000000

 ==============================================================================

 ==============================================================================
     atom number    2 relative position :    0.5000   0.5000   0.5000
     charge :     1.295037
     magnetization :         -0.000000   -0.000000    0.019161
     magnetization/charge:   -0.000000   -0.000000    0.014796
     polar coord.: r, theta, phi [deg] :     0.019161    0.000000  360.000000

 ==============================================================================

 ==============================================================================
     atom number    3 relative position :    0.7500   0.7500   0.7500
     charge :    15.714869
     magnetization :         -0.000000    0.000000   -0.532667
     magnetization/charge:   -0.000000    0.000000   -0.033896
     polar coord.: r, theta, phi [deg] :     0.532667  180.000000  360.000000

 ==============================================================================

 ==============================================================================
     atom number    4 relative position :    0.2500   0.2500   0.2500
     charge :    15.714869
     magnetization :         -0.000000    0.000000   -0.532667
     magnetization/charge:   -0.000000    0.000000   -0.033896
     polar coord.: r, theta, phi [deg] :     0.532667  180.000000  360.000000

 ==============================================================================

     total cpu time spent up to now is    24738.0 secs

     End of self-consistent calculation

          k = 0.0000 0.0000 0.0000 ( 28571 PWs)   bands (ev):

   -79.2889 -79.2817 -78.5659 -78.5585 -48.7003 -48.6407 -43.6236 -43.5976
   -43.4166 -43.3903 -41.9511 -41.9216 -41.6796 -41.6498 -41.4754 -41.4453
   -41.3044 -41.2740 -23.0667 -23.0470 -22.2540 -22.2340 -22.2144 -22.1961
     6.3049   6.3336  12.2130  12.2135  12.6095  12.6242  12.6415  12.6885
    12.6891  12.8568  12.8749  12.8894  13.9936  14.0021  14.0116  14.1259
    14.1289  14.1319  15.1751  15.1755  15.2674  15.2814  15.2970  15.5574
    15.5832  15.6050  16.0847  16.0850  16.7987  16.7990  17.1154  17.1157
    21.2369  21.2418  21.2477  21.3559

     occupation numbers 
     1.0000   1.0000   1.0000   1.0000   1.0000   1.0000   1.0000   1.0000
     1.0000   1.0000   1.0000   1.0000   1.0000   1.0000   1.0000   1.0000
     1.0000   1.0000   1.0000   1.0000   1.0000   1.0000   1.0000   1.0000
     1.0000   1.0000   1.0000   1.0000   1.0000   1.0000   1.0000   1.0000
     1.0000   1.0000   1.0000   1.0000   1.0017   1.0018   1.0019   1.0039
     1.0039   1.0040   1.0736   1.0735   1.0512   1.0465   1.0408   0.8759
     0.8528   0.8325   0.3299   0.3296   0.0165   0.0165   0.0022   0.0022
     0.0000   0.0000   0.0000   0.0000

          k =-0.0833 0.0833-0.0833 ( 28463 PWs)   bands (ev):

   -79.2888 -79.2818 -78.5658 -78.5586 -48.7004 -48.6407 -43.6232 -43.5980
   -43.4161 -43.3908 -41.9506 -41.9221 -41.6791 -41.6503 -41.4749 -41.4458
   -41.3039 -41.2745 -23.0669 -23.0472 -22.2542 -22.2342 -22.2146 -22.1964
     6.4047   6.4333  12.1974  12.1997  12.5732  12.6153  12.6220  12.6856
    12.7016  12.8163  12.9911  13.0046  13.9659  13.9754  13.9997  14.1000
    14.1108  14.1141  14.9896  14.9968  15.1143  15.4245  15.4659  15.4708
    15.4983  15.5097  16.1591  16.1622  16.7700  16.7714  17.0872  17.0890
    20.7613  20.8922  21.2274  21.2287

     occupation numbers 
     1.0000   1.0000   1.0000   1.0000   1.0000   1.0000   1.0000   1.0000
     1.0000   1.0000   1.0000   1.0000   1.0000   1.0000   1.0000   1.0000
     1.0000   1.0000   1.0000   1.0000   1.0000   1.0000   1.0000   1.0000
     1.0000   1.0000   1.0000   1.0000   1.0000   1.0000   1.0000   1.0000
     1.0000   1.0000   1.0000   1.0000   1.0014   1.0015   1.0018   1.0033
     1.0035   1.0036   1.0816   1.0820   1.0809   0.9765   0.9487   0.9452
     0.9246   0.9156   0.2653   0.2628   0.0194   0.0192   0.0027   0.0027
     0.0000   0.0000   0.0000   0.0000

          k =-0.1667 0.1667-0.1667 ( 28454 PWs)   bands (ev):

   -79.2884 -79.2822 -78.5654 -78.5590 -48.7006 -48.6409 -43.6219 -43.5992
   -43.4149 -43.3920 -41.9492 -41.9235 -41.6777 -41.6517 -41.4735 -41.4472
   -41.3025 -41.2760 -23.0674 -23.0477 -22.2549 -22.2348 -22.2153 -22.1970
     6.6998   6.7283  12.1850  12.1911  12.4272  12.5475  12.5569  12.6324
    12.8448  12.8619  13.2077  13.2193  13.8830  13.8886  13.8920  13.9373
    14.0707  14.0752  14.7612  14.7802  14.7932  15.1602  15.3040  15.3149
    15.6912  15.6976  16.2979  16.3026  16.7098  16.7147  17.0235  17.0297
    19.7999  19.9452  21.1757  21.1828

     occupation numbers 
     1.0000   1.0000   1.0000   1.0000   1.0000   1.0000   1.0000   1.0000
     1.0000   1.0000   1.0000   1.0000   1.0000   1.0000   1.0000   1.0000
     1.0000   1.0000   1.0000   1.0000   1.0000   1.0000   1.0000   1.0000
     1.0000   1.0000   1.0000   1.0000   1.0000   1.0000   1.0000   1.0000
     1.0000   1.0000   1.0000   1.0000   1.0008   1.0009   1.0009   1.0012
     1.0028   1.0029   1.0562   1.0588   1.0606   1.0759   1.0381   1.0337
     0.7463   0.7396   0.1670   0.1642   0.0268   0.0262   0.0042   0.0040
     0.0000   0.0000   0.0000   0.0000

          k =-0.2500 0.2500-0.2500 ( 28457 PWs)   bands (ev):

   -79.2878 -79.2828 -78.5648 -78.5596 -48.7009 -48.6412 -43.6199 -43.6012
   -43.4128 -43.3940 -41.9469 -41.9258 -41.6754 -41.6540 -41.4712 -41.4495
   -41.3001 -41.2783 -23.0680 -23.0484 -22.2558 -22.2356 -22.2162 -22.1978
     7.1774   7.2054  12.1077  12.2080  12.2144  12.2354  12.5293  12.5411
    13.0358  13.0499  13.4303  13.4380  13.5672  13.6539  13.7748  13.7847
    14.0326  14.0434  14.5551  14.5732  14.6073  14.9936  15.0947  15.1008
    15.8621  15.8674  16.4135  16.4183  16.6852  16.6922  16.9766  16.9865
    18.7785  18.9187  21.0679  21.0742

     occupation numbers 
     1.0000   1.0000   1.0000   1.0000   1.0000   1.0000   1.0000   1.0000
     1.0000   1.0000   1.0000   1.0000   1.0000   1.0000   1.0000   1.0000
     1.0000   1.0000   1.0000   1.0000   1.0000   1.0000   1.0000   1.0000
     1.0000   1.0000   1.0000   1.0000   1.0000   1.0000   1.0000   1.0000
     1.0000   1.0000   1.0000   1.0000   1.0001   1.0002   1.0004   1.0004
     1.0022   1.0024   1.0298   1.0318   1.0358   1.0818   1.0822   1.0818
     0.5596   0.5538   0.1071   0.1050   0.0305   0.0294   0.0057   0.0053
     0.0000   0.0000   0.0000   0.0000

          k =-0.3333 0.3333-0.3333 ( 28445 PWs)   bands (ev):

   -79.2871 -79.2835 -78.5640 -78.5603 -48.7011 -48.6414 -43.6172 -43.6038
   -43.4101 -43.3966 -41.9439 -41.9288 -41.6724 -41.6571 -41.4681 -41.4526
   -41.2970 -41.2814 -23.0687 -23.0490 -22.2568 -22.2364 -22.2172 -22.1985
     7.8140   7.8406  11.4688  11.5057  12.2622  12.2775  12.5477  12.5622
    13.2158  13.2236  13.3667  13.5409  13.6063  13.6087  13.6734  13.6868
    14.0297  14.0561  14.3685  14.3810  14.5036  14.8519  14.8850  14.9197
    15.9450  15.9546  16.4673  16.4749  16.7500  16.7538  16.9903  16.9980
    17.9152  18.0517  20.8466  20.8615

     occupation numbers 
     1.0000   1.0000   1.0000   1.0000   1.0000   1.0000   1.0000   1.0000
     1.0000   1.0000   1.0000   1.0000   1.0000   1.0000   1.0000   1.0000
     1.0000   1.0000   1.0000   1.0000   1.0000   1.0000   1.0000   1.0000
     1.0000   1.0000   1.0000   1.0000   1.0000   1.0000   1.0000   1.0000
     1.0000   1.0000   1.0000   1.0001   1.0001   1.0001   1.0002   1.0002
     1.0022   1.0026   1.0137   1.0145   1.0245   1.0684   1.0724   1.0761
     0.4695   0.4593   0.0855   0.0828   0.0216   0.0212   0.0052   0.0049
     0.0000   0.0000   0.0000   0.0000

          k =-0.4167 0.4167-0.4167 ( 28480 PWs)   bands (ev):

   -79.2862 -79.2844 -78.5631 -78.5612 -48.7013 -48.6416 -43.6140 -43.6070
   -43.4069 -43.3998 -41.9403 -41.9324 -41.6687 -41.6607 -41.4644 -41.4563
   -41.2933 -41.2851 -23.0692 -23.0495 -22.2575 -22.2370 -22.2179 -22.1990
     8.5611   8.5846  10.6218  10.6242  12.3204  12.3403  12.5772  12.5942
    13.3427  13.3515  13.4109  13.5833  13.5977  13.6479  13.7002  13.7074
    14.0602  14.1083  14.2146  14.2375  14.3718  14.6821  14.7208  14.7612
    15.9629  15.9779  16.4750  16.4863  16.8587  16.8603  17.0422  17.0438
    17.3561  17.4979  20.5695  20.6036

     occupation numbers 
     1.0000   1.0000   1.0000   1.0000   1.0000   1.0000   1.0000   1.0000
     1.0000   1.0000   1.0000   1.0000   1.0000   1.0000   1.0000   1.0000
     1.0000   1.0000   1.0000   1.0000   1.0000   1.0000   1.0000   1.0000
     1.0000   1.0000   1.0000   1.0000   1.0000   1.0000   1.0000   1.0000
     1.0000   1.0000   1.0000   1.0001   1.0001   1.0001   1.0002   1.0002
     1.0026   1.0035   1.0064   1.0072   1.0139   1.0454   1.0506   1.0562
     0.4505   0.4349   0.0828   0.0788   0.0117   0.0116   0.0037   0.0037
     0.0004   0.0001   0.0000   0.0000

          k = 0.5000-0.5000 0.5000 ( 28528 PWs)   bands (ev):

   -79.2853 -79.2853 -78.5622 -78.5622 -48.7014 -48.6417 -43.6111 -43.6099
   -43.4039 -43.4028 -41.9369 -41.9358 -41.6653 -41.6641 -41.4609 -41.4598
   -41.2898 -41.2886 -23.0694 -23.0497 -22.2578 -22.2372 -22.2181 -22.1991
     9.1180   9.1363  10.0074  10.0238  12.3460  12.3679  12.5910  12.6090
    13.3889  13.4082  13.4820  13.5497  13.5804  13.7064  13.7276  13.7523
    14.0656  14.1230  14.1616  14.1968  14.2860  14.5904  14.6526  14.6809
    15.9632  15.9803  16.4730  16.4857  16.9100  16.9138  17.0675  17.0695
    17.1683  17.3147  20.4469  20.4863

     occupation numbers 
     1.0000   1.0000   1.0000   1.0000   1.0000   1.0000   1.0000   1.0000
     1.0000   1.0000   1.0000   1.0000   1.0000   1.0000   1.0000   1.0000
     1.0000   1.0000   1.0000   1.0000   1.0000   1.0000   1.0000   1.0000
     1.0000   1.0000   1.0000   1.0000   1.0000   1.0000   1.0000   1.0000
     1.0000   1.0000   1.0000   1.0001   1.0001   1.0002   1.0003   1.0003
     1.0027   1.0038   1.0047   1.0058   1.0092   1.0338   1.0415   1.0452
     0.4502   0.4324   0.0835   0.0790   0.0086   0.0084   0.0031   0.0031
     0.0015   0.0005   0.0000   0.0000

          k = 0.0000 0.1667 0.0000 ( 28470 PWs)   bands (ev):

   -79.2887 -79.2819 -78.5658 -78.5586 -48.7004 -48.6408 -43.6229 -43.5983
   -43.4162 -43.3907 -41.9500 -41.9227 -41.6792 -41.6503 -41.4754 -41.4453
   -41.3033 -41.2751 -23.0669 -23.0472 -22.2544 -22.2342 -22.2146 -22.1966
     6.4378   6.4664  12.1085  12.2658  12.4613  12.6522  12.6715  12.6806
    12.7483  12.9187  12.9211  13.0174  13.8554  13.9968  14.0311  14.0313
    14.1562  14.1565  14.8794  15.1722  15.1874  15.1895  15.3954  15.4822
    15.4899  15.5802  16.0821  16.2385  16.7477  16.7694  17.0561  17.0974
    20.9299  20.9700  20.9709  21.0326

     occupation numbers 
     1.0000   1.0000   1.0000   1.0000   1.0000   1.0000   1.0000   1.0000
     1.0000   1.0000   1.0000   1.0000   1.0000   1.0000   1.0000   1.0000
     1.0000   1.0000   1.0000   1.0000   1.0000   1.0000   1.0000   1.0000
     1.0000   1.0000   1.0000   1.0000   1.0000   1.0000   1.0000   1.0000
     1.0000   1.0000   1.0000   1.0000   1.0007   1.0018   1.0022   1.0022
     1.0046   1.0046   1.0717   1.0741   1.0715   1.0711   0.9940   0.9368
     0.9310   0.8555   0.3323   0.2054   0.0219   0.0195   0.0034   0.0025
     0.0000   0.0000   0.0000   0.0000

          k =-0.0833 0.2500-0.0833 ( 28433 PWs)   bands (ev):

   -79.2885 -79.2821 -78.5655 -78.5589 -48.7006 -48.6409 -43.6218 -43.5993
   -43.4155 -43.3914 -41.9486 -41.9241 -41.6783 -41.6511 -41.4749 -41.4459
   -41.3018 -41.2766 -23.0673 -23.0476 -22.2550 -22.2346 -22.2150 -22.1971
     6.6673   6.6957  12.0119  12.2994  12.3056  12.5829  12.7293  12.7762
    12.8307  12.8620  13.0870  13.1969  13.6662  13.8266  14.0263  14.0321
    14.1450  14.1700  14.7573  14.9029  14.9286  15.2211  15.3251  15.3378
    15.3836  15.7778  16.1367  16.3665  16.6844  16.7188  16.9827  17.0568
    20.1103  20.2498  20.6396  20.7636

     occupation numbers 
     1.0000   1.0000   1.0000   1.0000   1.0000   1.0000   1.0000   1.0000
     1.0000   1.0000   1.0000   1.0000   1.0000   1.0000   1.0000   1.0000
     1.0000   1.0000   1.0000   1.0000   1.0000   1.0000   1.0000   1.0000
     1.0000   1.0000   1.0000   1.0000   1.0000   1.0000   1.0000   1.0000
     1.0000   1.0000   1.0000   1.0000   1.0002   1.0006   1.0021   1.0022
     1.0043   1.0050   1.0557   1.0743   1.0770   1.0643   1.0294   1.0237
     1.0007   0.6530   0.2840   0.1291   0.0306   0.0256   0.0054   0.0033
     0.0000   0.0000   0.0000   0.0000

          k =-0.1667 0.3333-0.1667 ( 28463 PWs)   bands (ev):

   -79.2880 -79.2826 -78.5650 -78.5594 -48.7008 -48.6411 -43.6200 -43.6011
   -43.4139 -43.3929 -41.9463 -41.9264 -41.6766 -41.6529 -41.4734 -41.4473
   -41.2994 -41.2789 -23.0679 -23.0482 -22.2559 -22.2353 -22.2158 -22.1979
     7.0829   7.1110  11.9140  12.1330  12.3321  12.4369  12.6838  12.7020
    12.9520  13.0272  13.3151  13.4139  13.4199  13.5857  13.9044  13.9674
    14.0560  14.1689  14.5931  14.6437  14.6783  15.0166  15.1128  15.1849
    15.5778  15.9779  16.2406  16.4983  16.6393  16.6641  16.9161  16.9995
    19.0813  19.2219  20.2959  20.4222

     occupation numbers 
     1.0000   1.0000   1.0000   1.0000   1.0000   1.0000   1.0000   1.0000
     1.0000   1.0000   1.0000   1.0000   1.0000   1.0000   1.0000   1.0000
     1.0000   1.0000   1.0000   1.0000   1.0000   1.0000   1.0000   1.0000
     1.0000   1.0000   1.0000   1.0000   1.0000   1.0000   1.0000   1.0000
     1.0000   1.0000   1.0000   1.0000   1.0000   1.0001   1.0010   1.0015
     1.0026   1.0049   1.0341   1.0403   1.0449   1.0828   1.0810   1.0719
     0.8577   0.4349   0.2040   0.0748   0.0386   0.0340   0.0083   0.0049
     0.0000   0.0000   0.0000   0.0000

          k =-0.2500 0.4167-0.2500 ( 28465 PWs)   bands (ev):

   -79.2873 -79.2833 -78.5643 -78.5601 -48.7011 -48.6414 -43.6175 -43.6035
   -43.4116 -43.3952 -41.9433 -41.9293 -41.6740 -41.6555 -41.4710 -41.4497
   -41.2963 -41.2820 -23.0686 -23.0489 -22.2568 -22.2361 -22.2167 -22.1987
     7.6645   7.6914  11.6261  11.7162  12.2456  12.3765  12.4864  12.6983
    13.1213  13.1709  13.2822  13.4428  13.5125  13.6314  13.7319  13.8728
    13.9920  14.1792  14.3767  14.4192  14.6034  14.8432  14.8962  15.0638
    15.7416  16.0698  16.3354  16.5603  16.6721  16.6848  16.9058  16.9807
    18.1411  18.2786  19.9900  20.1308

     occupation numbers 
     1.0000   1.0000   1.0000   1.0000   1.0000   1.0000   1.0000   1.0000
     1.0000   1.0000   1.0000   1.0000   1.0000   1.0000   1.0000   1.0000
     1.0000   1.0000   1.0000   1.0000   1.0000   1.0000   1.0000   1.0000
     1.0000   1.0000   1.0000   1.0000   1.0000   1.0000   1.0000   1.0000
     1.0000   1.0000   1.0000   1.0000   1.0000   1.0001   1.0003   1.0008
     1.0017   1.0052   1.0143   1.0172   1.0353   1.0672   1.0736   1.0832
     0.6925   0.3437   0.1454   0.0564   0.0327   0.0306   0.0088   0.0055
     0.0000   0.0000   0.0000   0.0000

          k =-0.3333 0.5000-0.3333 ( 28475 PWs)   bands (ev):

   -79.2865 -79.2841 -78.5634 -78.5609 -48.7013 -48.6416 -43.6145 -43.6065
   -43.4087 -43.3981 -41.9398 -41.9328 -41.6707 -41.6588 -41.4678 -41.4529
   -41.2928 -41.2856 -23.0692 -23.0495 -22.2576 -22.2368 -22.2175 -22.1992
     8.3741   8.3983  10.9289  10.9439  12.2086  12.4138  12.4480  12.6947
    13.2064  13.2623  13.4024  13.5073  13.6244  13.6655  13.7393  13.7753
    14.0409  14.1845  14.2145  14.2605  14.4836  14.6827  14.7249  14.9110
    15.8571  16.0465  16.4032  16.5426  16.7814  16.7829  16.9619  17.0082
    17.4676  17.6098  19.7958  19.9603

     occupation numbers 
     1.0000   1.0000   1.0000   1.0000   1.0000   1.0000   1.0000   1.0000
     1.0000   1.0000   1.0000   1.0000   1.0000   1.0000   1.0000   1.0000
     1.0000   1.0000   1.0000   1.0000   1.0000   1.0000   1.0000   1.0000
     1.0000   1.0000   1.0000   1.0000   1.0000   1.0000   1.0000   1.0000
     1.0000   1.0000   1.0000   1.0000   1.0001   1.0002   1.0003   1.0004
     1.0023   1.0054   1.0063   1.0081   1.0226   1.0454   1.0512   1.0752
     0.5651   0.3660   0.1117   0.0613   0.0182   0.0180   0.0062   0.0046
     0.0001   0.0000   0.0000   0.0000

          k = 0.5833-0.4167 0.5833 ( 28493 PWs)   bands (ev):

   -79.2856 -79.2850 -78.5625 -78.5618 -48.7014 -48.6417 -43.6113 -43.6097
   -43.4054 -43.4013 -41.9370 -41.9357 -41.6670 -41.6625 -41.4641 -41.4566
   -41.2899 -41.2885 -23.0694 -23.0497 -22.2579 -22.2372 -22.2181 -22.1994
     9.0700   9.0883  10.1780  10.1888  12.2481  12.4162  12.4794  12.6647
    13.2685  13.3407  13.4512  13.5953  13.6689  13.6936  13.7318  13.7704
    14.0953  14.1341  14.1874  14.2245  14.3403  14.6006  14.6468  14.7273
    15.9425  15.9792  16.4572  16.4935  16.8558  16.8770  17.0221  17.0299
    17.1563  17.3070  19.7356  19.8181

     occupation numbers 
     1.0000   1.0000   1.0000   1.0000   1.0000   1.0000   1.0000   1.0000
     1.0000   1.0000   1.0000   1.0000   1.0000   1.0000   1.0000   1.0000
     1.0000   1.0000   1.0000   1.0000   1.0000   1.0000   1.0000   1.0000
     1.0000   1.0000   1.0000   1.0000   1.0000   1.0000   1.0000   1.0000
     1.0000   1.0000   1.0000   1.0001   1.0002   1.0002   1.0003   1.0004
     1.0032   1.0041   1.0055   1.0067   1.0120   1.0350   1.0407   1.0515
     0.4721   0.4335   0.0893   0.0764   0.0119   0.0105   0.0042   0.0040
     0.0017   0.0005   0.0000   0.0000

          k = 0.5000-0.3333 0.5000 ( 28479 PWs)   bands (ev):

   -79.2859 -79.2847 -78.5628 -78.5616 -48.7014 -48.6417 -43.6133 -43.6077
   -43.4049 -43.4018 -41.9405 -41.9322 -41.6666 -41.6629 -41.4609 -41.4597
   -41.2935 -41.2849 -23.0694 -23.0497 -22.2577 -22.2372 -22.2181 -22.1992
     8.8658   8.8864  10.4008  10.4064  12.2877  12.3591  12.5249  12.6014
    13.2231  13.3789  13.4426  13.5556  13.5852  13.7196  13.7380  13.8057
    14.0671  14.1542  14.1772  14.2538  14.3701  14.6139  14.6765  14.7537
    15.8913  16.0282  16.4337  16.5183  16.8384  16.8645  16.9922  17.0458
    17.2191  17.3703  19.5893  19.7753

     occupation numbers 
     1.0000   1.0000   1.0000   1.0000   1.0000   1.0000   1.0000   1.0000
     1.0000   1.0000   1.0000   1.0000   1.0000   1.0000   1.0000   1.0000
     1.0000   1.0000   1.0000   1.0000   1.0000   1.0000   1.0000   1.0000
     1.0000   1.0000   1.0000   1.0000   1.0000   1.0000   1.0000   1.0000
     1.0000   1.0000   1.0000   1.0001   1.0001   1.0003   1.0003   1.0005
     1.0027   1.0046   1.0052   1.0078   1.0138   1.0366   1.0446   1.0552
     0.5276   0.3838   0.0986   0.0684   0.0132   0.0113   0.0051   0.0036
     0.0011   0.0003   0.0000   0.0000

          k = 0.4167-0.2500 0.4167 ( 28459 PWs)   bands (ev):

   -79.2868 -79.2838 -78.5637 -78.5607 -48.7013 -48.6415 -43.6165 -43.6045
   -43.4082 -43.3985 -41.9440 -41.9287 -41.6703 -41.6592 -41.4646 -41.4560
   -41.2971 -41.2813 -23.0690 -23.0493 -22.2571 -22.2368 -22.2177 -22.1987
     8.1269   8.1522  11.2070  11.2354  12.2604  12.3281  12.5214  12.5856
    13.1230  13.3479  13.3594  13.4606  13.5180  13.6468  13.7105  13.8838
    13.9695  14.2216  14.2395  14.3171  14.5190  14.7030  14.8276  14.9281
    15.7849  16.1059  16.3681  16.5778  16.7499  16.7548  16.9450  17.0024
    17.6609  17.8031  19.6772  19.8415

     occupation numbers 
     1.0000   1.0000   1.0000   1.0000   1.0000   1.0000   1.0000   1.0000
     1.0000   1.0000   1.0000   1.0000   1.0000   1.0000   1.0000   1.0000
     1.0000   1.0000   1.0000   1.0000   1.0000   1.0000   1.0000   1.0000
     1.0000   1.0000   1.0000   1.0000   1.0000   1.0000   1.0000   1.0000
     1.0000   1.0000   1.0000   1.0000   1.0000   1.0001   1.0002   1.0008
     1.0015   1.0066   1.0073   1.0107   1.0260   1.0482   1.0652   1.0769
     0.6451   0.3107   0.1283   0.0520   0.0216   0.0211   0.0069   0.0048
     0.0000   0.0000   0.0000   0.0000

          k = 0.3333-0.1667 0.3333 ( 28462 PWs)   bands (ev):

   -79.2875 -79.2831 -78.5645 -78.5599 -48.7010 -48.6413 -43.6192 -43.6019
   -43.4112 -43.3956 -41.9469 -41.9258 -41.6736 -41.6558 -41.4682 -41.4524
   -41.3001 -41.2783 -23.0684 -23.0487 -22.2561 -22.2362 -22.2169 -22.1980
     7.4539   7.4813  11.8418  11.9599  12.1734  12.4119  12.4628  12.7023
    13.0253  13.1863  13.3510  13.3874  13.5365  13.5983  13.6107  13.9119
    13.9891  14.2095  14.4410  14.4844  14.6233  14.8808  15.0194  15.0540
    15.6422  16.1260  16.2871  16.5942  16.6499  16.6799  16.9291  16.9610
    18.4443  18.5842  19.9161  20.0580

     occupation numbers 
     1.0000   1.0000   1.0000   1.0000   1.0000   1.0000   1.0000   1.0000
     1.0000   1.0000   1.0000   1.0000   1.0000   1.0000   1.0000   1.0000
     1.0000   1.0000   1.0000   1.0000   1.0000   1.0000   1.0000   1.0000
     1.0000   1.0000   1.0000   1.0000   1.0000   1.0000   1.0000   1.0000
     1.0000   1.0000   1.0000   1.0000   1.0001   1.0001   1.0001   1.0010
     1.0017   1.0062   1.0189   1.0227   1.0378   1.0719   1.0829   1.0833
     0.7963   0.2931   0.1736   0.0481   0.0366   0.0314   0.0076   0.0063
     0.0000   0.0000   0.0000   0.0000

          k = 0.2500-0.0833 0.2500 ( 28469 PWs)   bands (ev):

   -79.2882 -79.2825 -78.5651 -78.5592 -48.7007 -48.6410 -43.6213 -43.5998
   -43.4136 -43.3932 -41.9490 -41.9237 -41.6763 -41.6532 -41.4712 -41.4494
   -41.3023 -41.2762 -23.0677 -23.0480 -22.2552 -22.2354 -22.2159 -22.1973
     6.9246   6.9529  12.1071  12.1272  12.3487  12.4483  12.5283  12.8588
    12.8644  12.9935  13.1947  13.3897  13.6309  13.7168  13.7402  13.9633
    14.0585  14.2037  14.6569  14.6781  14.7745  15.0817  15.1844  15.2140
    15.4694  15.9962  16.1972  16.5025  16.6593  16.6788  16.9666  16.9943
    19.4461  19.5900  20.2110  20.3427

     occupation numbers 
     1.0000   1.0000   1.0000   1.0000   1.0000   1.0000   1.0000   1.0000
     1.0000   1.0000   1.0000   1.0000   1.0000   1.0000   1.0000   1.0000
     1.0000   1.0000   1.0000   1.0000   1.0000   1.0000   1.0000   1.0000
     1.0000   1.0000   1.0000   1.0000   1.0000   1.0000   1.0000   1.0000
     1.0000   1.0000   1.0000   1.0000   1.0001   1.0002   1.0003   1.0014
     1.0026   1.0060   1.0420   1.0448   1.0580   1.0827   1.0720   1.0660
     0.9461   0.4160   0.2354   0.0734   0.0349   0.0315   0.0060   0.0051
     0.0000   0.0000   0.0000   0.0000

[...]
     1.0000   1.0000   1.0000   1.0000   1.0000   1.0000   1.0000   1.0000
     1.0000   1.0000   1.0000   1.0000   1.0000   1.0000   1.0000   1.0000
     1.0000   1.0000   1.0000   1.0000   1.0001   1.0005   1.0006   1.0013
     1.0033   1.0071   1.0184   1.0256   1.0369   1.0415   1.0454   1.0829
     0.9270   0.2649   0.1955   0.1064   0.0685   0.0589   0.0213   0.0150
     0.0002   0.0000   0.0000   0.0000

          k = 1.0000 0.6667-0.3333 ( 28455 PWs)   bands (ev):

   -79.2865 -79.2841 -78.5634 -78.5609 -48.7015 -48.6417 -43.6179 -43.6033
   -43.4041 -43.4024 -41.9498 -41.9233 -41.6659 -41.6632 -41.4660 -41.4540
   -41.3031 -41.2757 -23.0694 -23.0500 -22.2565 -22.2387 -22.2196 -22.1984
     8.6632   8.6832  11.1571  11.2621  11.9718  12.1142  12.6524  12.8219
    12.8654  13.2262  13.4155  13.4988  13.6275  13.8044  13.8357  13.9507
    14.1029  14.2280  14.4337  14.5407  14.6122  14.6242  14.6937  15.0788
    15.4951  16.1615  16.2517  16.4142  16.5179  16.5524  16.7515  16.8165
    17.4560  17.6420  17.8122  17.9694

     occupation numbers 
     1.0000   1.0000   1.0000   1.0000   1.0000   1.0000   1.0000   1.0000
     1.0000   1.0000   1.0000   1.0000   1.0000   1.0000   1.0000   1.0000
     1.0000   1.0000   1.0000   1.0000   1.0000   1.0000   1.0000   1.0000
     1.0000   1.0000   1.0000   1.0000   1.0000   1.0000   1.0000   1.0000
     1.0000   1.0000   1.0000   1.0000   1.0001   1.0005   1.0006   1.0013
     1.0034   1.0068   1.0184   1.0282   1.0364   1.0379   1.0469   1.0828
     0.9270   0.2634   0.1964   0.1068   0.0685   0.0585   0.0215   0.0149
     0.0002   0.0000   0.0000   0.0000

          k =-0.2500 0.9167 0.5833 ( 28457 PWs)   bands (ev):

   -79.2859 -79.2847 -78.5628 -78.5615 -48.7016 -48.6419 -43.6127 -43.6083
   -43.4063 -43.4006 -41.9382 -41.9341 -41.6683 -41.6620 -41.4644 -41.4565
   -41.2907 -41.2866 -23.0699 -23.0501 -22.2592 -22.2371 -22.2175 -22.2012
     9.2387   9.2501  10.9686  11.0331  11.6365  11.7729  12.7016  12.8448
    12.8678  13.1821  13.4403  13.4906  13.7261  13.8577  13.9030  14.0196
    14.0701  14.1459  14.3538  14.4509  14.5766  14.5968  14.6993  14.9657
    15.6258  15.9851  16.3294  16.4728  16.5641  16.6285  16.7966  16.8382
    17.0296  17.2290  17.5583  17.7449

     occupation numbers 
     1.0000   1.0000   1.0000   1.0000   1.0000   1.0000   1.0000   1.0000
     1.0000   1.0000   1.0000   1.0000   1.0000   1.0000   1.0000   1.0000
     1.0000   1.0000   1.0000   1.0000   1.0000   1.0000   1.0000   1.0000
     1.0000   1.0000   1.0000   1.0000   1.0000   1.0000   1.0000   1.0000
     1.0000   1.0000   1.0000   1.0000   1.0003   1.0007   1.0009   1.0020
     1.0028   1.0043   1.0128   1.0198   1.0322   1.0345   1.0477   1.0801
     0.8125   0.4274   0.1487   0.0836   0.0554   0.0407   0.0167   0.0132
     0.0040   0.0010   0.0001   0.0000

          k = 0.9167 0.5833-0.2500 ( 28457 PWs)   bands (ev):

   -79.2859 -79.2847 -78.5628 -78.5615 -48.7016 -48.6419 -43.6159 -43.6053
   -43.4049 -43.4017 -41.9477 -41.9253 -41.6660 -41.6632 -41.4693 -41.4509
   -41.3009 -41.2777 -23.0698 -23.0503 -22.2572 -22.2389 -22.2197 -22.1991
     9.2387   9.2502  10.9686  11.0331  11.6366  11.7728  12.7018  12.8442
    12.8678  13.1833  13.4395  13.4889  13.7300  13.8547  13.9036  14.0326
    14.0653  14.1301  14.3552  14.4834  14.5497  14.5943  14.7001  14.9682
    15.6262  15.9842  16.3317  16.4702  16.5638  16.6310  16.7934  16.8402
    17.0294  17.2291  17.5584  17.7448

     occupation numbers 
     1.0000   1.0000   1.0000   1.0000   1.0000   1.0000   1.0000   1.0000
     1.0000   1.0000   1.0000   1.0000   1.0000   1.0000   1.0000   1.0000
     1.0000   1.0000   1.0000   1.0000   1.0000   1.0000   1.0000   1.0000
     1.0000   1.0000   1.0000   1.0000   1.0000   1.0000   1.0000   1.0000
     1.0000   1.0000   1.0000   1.0000   1.0003   1.0007   1.0010   1.0022
     1.0027   1.0040   1.0129   1.0226   1.0292   1.0342   1.0478   1.0803
     0.8121   0.4284   0.1474   0.0845   0.0555   0.0402   0.0170   0.0130
     0.0040   0.0010   0.0001   0.0000

          k =-0.1667 0.8333 0.5000 ( 28440 PWs)   bands (ev):

   -79.2853 -79.2853 -78.5622 -78.5622 -48.7017 -48.6419 -43.6112 -43.6098
   -43.4039 -43.4030 -41.9370 -41.9354 -41.6657 -41.6647 -41.4607 -41.4602
   -41.2894 -41.2878 -23.0700 -23.0502 -22.2593 -22.2372 -22.2176 -22.2014
     9.5610   9.5645  10.7830  10.8199  11.5257  11.6678  12.7089  12.8659
    12.8825  13.1716  13.3962  13.4803  13.8191  13.8672  13.9137  13.9931
    14.1173  14.2033  14.2702  14.3973  14.5613  14.5710  14.6726  14.9174
    15.7681  15.8322  16.3827  16.4332  16.6036  16.6488  16.8180  16.8266
    16.9751  17.1558  17.5216  17.6942

     occupation numbers 
     1.0000   1.0000   1.0000   1.0000   1.0000   1.0000   1.0000   1.0000
     1.0000   1.0000   1.0000   1.0000   1.0000   1.0000   1.0000   1.0000
     1.0000   1.0000   1.0000   1.0000   1.0000   1.0000   1.0000   1.0000
     1.0000   1.0000   1.0000   1.0000   1.0000   1.0000   1.0000   1.0000
     1.0000   1.0000   1.0000   1.0000   1.0005   1.0007   1.0010   1.0017
     1.0037   1.0060   1.0085   1.0156   1.0305   1.0316   1.0441   1.0759
     0.6636   0.5928   0.1212   0.0988   0.0459   0.0368   0.0148   0.0141
     0.0057   0.0017   0.0001   0.0000

          k =-0.1667 1.0000 0.6667 ( 28446 PWs)   bands (ev):

   -79.2860 -79.2845 -78.5629 -78.5614 -48.7017 -48.6419 -43.6127 -43.6083
   -43.4079 -43.3991 -41.9371 -41.9351 -41.6701 -41.6604 -41.4679 -41.4530
   -41.2894 -41.2875 -23.0701 -23.0502 -22.2596 -22.2371 -22.2173 -22.2017
     9.3951   9.4037  10.9054  10.9986  11.6463  11.8022  12.6305  12.7714
    13.0552  13.3788  13.4175  13.6274  13.6863  13.8204  13.9343  13.9590
    14.0825  14.1716  14.3538  14.5449  14.6133  14.6498  14.8808  15.0613
    15.5704  15.8766  16.3081  16.3753  16.4278  16.4920  16.6875  16.7179
    16.9437  17.1113  17.3093  17.4814

     occupation numbers 
     1.0000   1.0000   1.0000   1.0000   1.0000   1.0000   1.0000   1.0000
     1.0000   1.0000   1.0000   1.0000   1.0000   1.0000   1.0000   1.0000
     1.0000   1.0000   1.0000   1.0000   1.0000   1.0000   1.0000   1.0000
     1.0000   1.0000   1.0000   1.0000   1.0000   1.0000   1.0000   1.0000
     1.0000   1.0000   1.0000   1.0001   1.0002   1.0005   1.0012   1.0014
     1.0030   1.0050   1.0128   1.0287   1.0365   1.0411   1.0719   1.0832
     0.8643   0.5437   0.1609   0.1248   0.1010   0.0769   0.0302   0.0257
     0.0070   0.0023   0.0005   0.0001

          k = 1.0000 0.6667-0.1667 ( 28446 PWs)   bands (ev):

   -79.2860 -79.2845 -78.5629 -78.5614 -48.7017 -48.6419 -43.6172 -43.6040
   -43.4051 -43.4014 -41.9504 -41.9228 -41.6661 -41.6629 -41.4711 -41.4487
   -41.3038 -41.2751 -23.0699 -23.0505 -22.2566 -22.2397 -22.2206 -22.1987
     9.3951   9.4037  10.9055  10.9986  11.6465  11.8020  12.6304  12.7715
    13.0546  13.3792  13.4170  13.6294  13.6875  13.8162  13.9379  13.9578
    14.0845  14.1619  14.3701  14.5418  14.6146  14.6379  14.8840  15.0625
    15.5710  15.8754  16.3108  16.3738  16.4267  16.4938  16.6844  16.7198
    16.9436  17.1113  17.3096  17.4797

     occupation numbers 
     1.0000   1.0000   1.0000   1.0000   1.0000   1.0000   1.0000   1.0000
     1.0000   1.0000   1.0000   1.0000   1.0000   1.0000   1.0000   1.0000
     1.0000   1.0000   1.0000   1.0000   1.0000   1.0000   1.0000   1.0000
     1.0000   1.0000   1.0000   1.0000   1.0000   1.0000   1.0000   1.0000
     1.0000   1.0000   1.0000   1.0001   1.0002   1.0005   1.0012   1.0014
     1.0030   1.0048   1.0138   1.0284   1.0367   1.0396   1.0722   1.0832
     0.8638   0.5450   0.1593   0.1255   0.1015   0.0762   0.0307   0.0255
     0.0070   0.0023   0.0005   0.0001

          k =-0.0833 0.9167 0.5833 ( 28455 PWs)   bands (ev):

   -79.2856 -79.2850 -78.5625 -78.5618 -48.7018 -48.6420 -43.6115 -43.6095
   -43.4056 -43.4014 -41.9370 -41.9352 -41.6676 -41.6630 -41.4643 -41.4567
   -41.2893 -41.2876 -23.0702 -23.0503 -22.2597 -22.2372 -22.2174 -22.2019
     9.7056   9.7063  10.9756  11.0625  11.3687  11.4914  12.5605  12.6650
    13.1284  13.3362  13.3787  13.5621  13.7550  13.8436  13.9274  14.0157
    14.0910  14.1029  14.3303  14.4718  14.5335  14.6348  14.8828  14.9689
    15.6722  15.7463  16.3511  16.4389  16.4683  16.6895  16.7080  16.8303
    16.8849  17.0131  17.2017  17.2632

     occupation numbers 
     1.0000   1.0000   1.0000   1.0000   1.0000   1.0000   1.0000   1.0000
     1.0000   1.0000   1.0000   1.0000   1.0000   1.0000   1.0000   1.0000
     1.0000   1.0000   1.0000   1.0000   1.0000   1.0000   1.0000   1.0000
     1.0000   1.0000   1.0000   1.0000   1.0000   1.0000   1.0000   1.0000
     1.0000   1.0000   1.0000   1.0001   1.0003   1.0006   1.0011   1.0020
     1.0032   1.0034   1.0115   1.0215   1.0275   1.0392   1.0721   1.0803
     0.7659   0.6874   0.1370   0.0965   0.0852   0.0299   0.0271   0.0138
     0.0100   0.0045   0.0012   0.0008

          k = 0.9167 0.5833-0.0833 ( 28455 PWs)   bands (ev):

   -79.2856 -79.2850 -78.5625 -78.5618 -48.7018 -48.6420 -43.6153 -43.6059
   -43.4068 -43.3998 -41.9481 -41.9250 -41.6681 -41.6611 -41.4728 -41.4471
   -41.3013 -41.2773 -23.0700 -23.0505 -22.2572 -22.2395 -22.2202 -22.1993
     9.7057   9.7062  10.9757  11.0623  11.3688  11.4913  12.5604  12.6650
    13.1278  13.3358  13.3795  13.5608  13.7652  13.8333  13.9306  14.0180
    14.0831  14.0993  14.3550  14.4603  14.5282  14.6308  14.8851  14.9704
    15.6802  15.7370  16.3590  16.4314  16.4693  16.6934  16.7042  16.8298
    16.8846  17.0136  17.2053  17.2570

     occupation numbers 
     1.0000   1.0000   1.0000   1.0000   1.0000   1.0000   1.0000   1.0000
     1.0000   1.0000   1.0000   1.0000   1.0000   1.0000   1.0000   1.0000
     1.0000   1.0000   1.0000   1.0000   1.0000   1.0000   1.0000   1.0000
     1.0000   1.0000   1.0000   1.0000   1.0000   1.0000   1.0000   1.0000
     1.0000   1.0000   1.0000   1.0001   1.0004   1.0006   1.0011   1.0020
     1.0030   1.0033   1.0129   1.0206   1.0269   1.0387   1.0724   1.0804
     0.7577   0.6975   0.1330   0.0995   0.0848   0.0292   0.0277   0.0138
     0.0100   0.0045   0.0012   0.0008

          k = 0.0000 0.8333 0.5000 ( 28454 PWs)   bands (ev):

   -79.2854 -79.2851 -78.5623 -78.5620 -48.7017 -48.6420 -43.6115 -43.6095
   -43.4041 -43.4029 -41.9375 -41.9347 -41.6659 -41.6646 -41.4607 -41.4603
   -41.2899 -41.2871 -23.0701 -23.0503 -22.2596 -22.2372 -22.2174 -22.2017
     9.6262   9.6274  11.0900  11.1682  11.2827  11.3921  12.6006  12.7293
    13.0068  13.2579  13.3679  13.5317  13.7704  13.8520  13.9799  14.0192
    14.0820  14.1050  14.3761  14.4737  14.5117  14.5584  14.8440  14.8943
    15.6450  15.8338  16.3714  16.4272  16.5625  16.6675  16.7447  16.8841
    16.9066  17.0682  17.2635  17.4419

     occupation numbers 
     1.0000   1.0000   1.0000   1.0000   1.0000   1.0000   1.0000   1.0000
     1.0000   1.0000   1.0000   1.0000   1.0000   1.0000   1.0000   1.0000
     1.0000   1.0000   1.0000   1.0000   1.0000   1.0000   1.0000   1.0000
     1.0000   1.0000   1.0000   1.0000   1.0000   1.0000   1.0000   1.0000
     1.0000   1.0000   1.0000   1.0001   1.0004   1.0007   1.0016   1.0020
     1.0030   1.0034   1.0142   1.0217   1.0253   1.0301   1.0673   1.0734
     0.7935   0.5910   0.1267   0.1013   0.0559   0.0334   0.0223   0.0100
     0.0088   0.0031   0.0008   0.0002

          k = 0.8333 0.5000 0.0000 ( 28454 PWs)   bands (ev):

   -79.2854 -79.2851 -78.5623 -78.5620 -48.7017 -48.6420 -43.6131 -43.6081
   -43.4083 -43.3984 -41.9450 -41.9279 -41.6698 -41.6595 -41.4738 -41.4464
   -41.2981 -41.2803 -23.0700 -23.0504 -22.2578 -22.2389 -22.2194 -22.1998
     9.6263   9.6274  11.0903  11.1679  11.2828  11.3921  12.6007  12.7293
    13.0065  13.2587  13.3664  13.5300  13.7876  13.8362  13.9968  14.0255
    14.0490  14.1069  14.4294  14.4339  14.5151  14.5472  14.8458  14.8960
    15.6484  15.8288  16.3916  16.4082  16.5633  16.6675  16.7446  16.8831
    16.9076  17.0679  17.2642  17.4313

     occupation numbers 
     1.0000   1.0000   1.0000   1.0000   1.0000   1.0000   1.0000   1.0000
     1.0000   1.0000   1.0000   1.0000   1.0000   1.0000   1.0000   1.0000
     1.0000   1.0000   1.0000   1.0000   1.0000   1.0000   1.0000   1.0000
     1.0000   1.0000   1.0000   1.0000   1.0000   1.0000   1.0000   1.0000
     1.0000   1.0000   1.0000   1.0001   1.0004   1.0006   1.0018   1.0021
     1.0024   1.0035   1.0180   1.0184   1.0256   1.0289   1.0676   1.0736
     0.7902   0.5966   0.1170   0.1095   0.0556   0.0334   0.0223   0.0101
     0.0087   0.0031   0.0008   0.0002

          k =-1.0000 0.0000-0.3333 ( 28446 PWs)   bands (ev):

   -79.2859 -79.2847 -78.5628 -78.5615 -48.7018 -48.6420 -43.6121 -43.6089
   -43.4076 -43.3994 -41.9370 -41.9352 -41.6698 -41.6609 -41.4679 -41.4531
   -41.2893 -41.2875 -23.0703 -23.0504 -22.2599 -22.2372 -22.2173 -22.2021
     9.7444   9.7447  10.8250  10.9196  11.5331  11.6929  12.4975  12.5804
    13.2464  13.4056  13.5601  13.6739  13.6987  13.8139  13.8163  13.9777
    14.1370  14.1584  14.2352  14.5312  14.6403  14.7415  14.9971  15.0488
    15.6018  15.7202  16.3318  16.3544  16.4675  16.5031  16.5749  16.6675
    16.8111  16.9869  17.1075  17.2016

     occupation numbers 
     1.0000   1.0000   1.0000   1.0000   1.0000   1.0000   1.0000   1.0000
     1.0000   1.0000   1.0000   1.0000   1.0000   1.0000   1.0000   1.0000
     1.0000   1.0000   1.0000   1.0000   1.0000   1.0000   1.0000   1.0000
     1.0000   1.0000   1.0000   1.0000   1.0000   1.0000   1.0000   1.0000
     1.0000   1.0000   1.0001   1.0002   1.0002   1.0005   1.0005   1.0016
     1.0041   1.0047   1.0071   1.0272   1.0399   1.0535   1.0820   1.0833
     0.8355   0.7156   0.1474   0.1353   0.0855   0.0732   0.0527   0.0334
     0.0154   0.0053   0.0024   0.0012

          k = 0.0000-0.3333-1.0000 ( 28446 PWs)   bands (ev):

   -79.2859 -79.2847 -78.5628 -78.5615 -48.7018 -48.6420 -43.6170 -43.6043
   -43.4061 -43.4005 -41.9507 -41.9226 -41.6671 -41.6618 -41.4729 -41.4468
   -41.3040 -41.2749 -23.0700 -23.0506 -22.2567 -22.2401 -22.2209 -22.1988
     9.7444   9.7447  10.8250  10.9195  11.5333  11.6927  12.4974  12.5806
    13.2453  13.4051  13.5615  13.6753  13.7033  13.8083  13.8129  13.9797
    14.1437  14.1441  14.2503  14.5270  14.6386  14.7363  15.0045  15.0462
    15.6056  15.7152  16.3372  16.3535  16.4675  16.4997  16.5743  16.6677
    16.8122  16.9863  17.1094  17.1950

     occupation numbers 
     1.0000   1.0000   1.0000   1.0000   1.0000   1.0000   1.0000   1.0000
     1.0000   1.0000   1.0000   1.0000   1.0000   1.0000   1.0000   1.0000
     1.0000   1.0000   1.0000   1.0000   1.0000   1.0000   1.0000   1.0000
     1.0000   1.0000   1.0000   1.0000   1.0000   1.0000   1.0000   1.0000
     1.0000   1.0000   1.0001   1.0002   1.0002   1.0005   1.0005   1.0016
     1.0043   1.0043   1.0077   1.0268   1.0397   1.0528   1.0823   1.0833
     0.8319   0.7209   0.1444   0.1358   0.0855   0.0743   0.0528   0.0334
     0.0153   0.0053   0.0023   0.0013

          k =-1.0000 0.0000-0.5000 ( 28440 PWs)   bands (ev):

   -79.2853 -79.2853 -78.5622 -78.5622 -48.7018 -48.6420 -43.6113 -43.6097
   -43.4040 -43.4030 -41.9370 -41.9352 -41.6659 -41.6648 -41.4607 -41.4603
   -41.2892 -41.2875 -23.0703 -23.0504 -22.2599 -22.2372 -22.2173 -22.2021
     9.7981   9.8019  11.1652  11.1860  11.2791  11.2980  12.4876  12.5350
    13.2578  13.3857  13.3973  13.4466  13.7568  13.9467  13.9520  13.9590
    14.0093  14.0379  14.3300  14.4140  14.5487  14.6896  14.9422  14.9703
    15.6461  15.6978  16.3821  16.4411  16.6236  16.6374  16.7267  16.8494
    16.8584  16.8716  17.0536  17.1280

     occupation numbers 
     1.0000   1.0000   1.0000   1.0000   1.0000   1.0000   1.0000   1.0000
     1.0000   1.0000   1.0000   1.0000   1.0000   1.0000   1.0000   1.0000
     1.0000   1.0000   1.0000   1.0000   1.0000   1.0000   1.0000   1.0000
     1.0000   1.0000   1.0000   1.0000   1.0000   1.0000   1.0000   1.0000
     1.0000   1.0000   1.0000   1.0000   1.0003   1.0013   1.0013   1.0014
     1.0019   1.0023   1.0114   1.0169   1.0291   1.0464   1.0782   1.0804
     0.7924   0.7394   0.1215   0.0956   0.0417   0.0389   0.0245   0.0123
     0.0117   0.0108   0.0034   0.0021

     the Fermi energy is    16.0113 ev

!    total energy              =    -733.85748174 Ry
     Harris-Foulkes estimate   =    -733.85748146 Ry
     estimated scf accuracy    <          8.0E-09 Ry

     The total energy is the sum of the following terms:

     one-electron contribution =    -423.85538227 Ry
     hartree contribution      =     237.69940278 Ry
     xc contribution           =     -84.39040901 Ry
     ewald contribution        =    -463.31294564 Ry
     smearing contrib. (-TS)   =       0.00185240 Ry

     total magnetization       =     0.00    -0.00    -0.98 Bohr mag/cell
     absolute magnetization    =     1.25 Bohr mag/cell

     convergence has been achieved in  24 iterations

     Writing output data file Co2VAl.save/

     init_run     :    292.72s CPU    298.88s WALL (       1 calls)
     electrons    :  23984.11s CPU  24433.35s WALL (       1 calls)

     Called by init_run:
     wfcinit      :    279.59s CPU    284.78s WALL (       1 calls)
     wfcinit:atom :      1.51s CPU      1.51s WALL (     163 calls)
     wfcinit:wfcr :    261.77s CPU    266.94s WALL (     163 calls)
     potinit      :      2.73s CPU      2.83s WALL (       1 calls)
     hinit0       :      4.43s CPU      4.50s WALL (       1 calls)

     Called by electrons:
     c_bands      :  19970.31s CPU  20299.40s WALL (      24 calls)
     sum_band     :   3817.61s CPU   3897.72s WALL (      24 calls)
     v_of_rho     :     49.74s CPU     50.37s WALL (      25 calls)
     v_h          :      1.27s CPU      1.30s WALL (      25 calls)
     v_xc         :     48.47s CPU     49.06s WALL (      25 calls)
     newd         :    138.50s CPU    178.11s WALL (      25 calls)
     mix_rho      :     10.18s CPU     10.41s WALL (      24 calls)

     Called by c_bands:
     init_us_2    :     48.02s CPU     48.10s WALL (    7987 calls)
     cegterg      :  19511.44s CPU  19838.07s WALL (    3912 calls)

     Called by sum_band:
     sum_band:bec :     37.02s CPU     37.05s WALL (    3912 calls)
     addusdens    :    369.76s CPU    409.33s WALL (      24 calls)

     Called by *egterg:
     h_psi        :  17122.93s CPU  17418.37s WALL (   22231 calls)
     s_psi        :    373.27s CPU    374.54s WALL (   22231 calls)
     g_psi        :     57.01s CPU     57.12s WALL (   18156 calls)
     cdiaghg      :    321.30s CPU    321.53s WALL (   22068 calls)
     cegterg:over :    743.14s CPU    745.74s WALL (   18156 calls)
     cegterg:upda :    593.29s CPU    594.36s WALL (   18156 calls)
     cegterg:last :    341.99s CPU    342.13s WALL (    5070 calls)

     Called by h_psi:
     h_psi:pot    :  17082.80s CPU  17376.43s WALL (   22231 calls)
     h_psi:calbec :    359.60s CPU    362.66s WALL (   22231 calls)
     vloc_psi     :  16346.85s CPU  16637.26s WALL (   22231 calls)
     add_vuspsi   :    376.11s CPU    376.34s WALL (   22231 calls)

     General routines
     calbec       :    461.72s CPU    465.60s WALL (   26143 calls)
     fft          :     35.58s CPU     36.66s WALL (     911 calls)
     ffts         :      1.35s CPU      1.41s WALL (     196 calls)
     fftw         :  15369.64s CPU  15671.65s WALL ( 3578340 calls)
     interpolate  :      4.43s CPU      4.59s WALL (     100 calls)

     Parallel routines
     fft_scatt_xy :   1984.61s CPU   1989.96s WALL ( 3579447 calls)
     fft_scatt_yz :   1575.69s CPU   1720.55s WALL ( 3579447 calls)

     PWSCF        :      6h44m CPU      6h52m WALL


   This run was terminated on:   8:24:41   9Oct2021            

=------------------------------------------------------------------------------=
   JOB DONE.
=------------------------------------------------------------------------------=
