 --invoking executable--
/opt/cfour/2.1/bin/xjoda


   *************************************************************************
         <<<     CCCCCC     CCCCCC   |||     CCCCCC     CCCCCC   >>>
       <<<      CCC        CCC       |||    CCC        CCC         >>>
      <<<      CCC        CCC        |||   CCC        CCC            >>>
    <<<        CCC        CCC        |||   CCC        CCC              >>>
      <<<      CCC        CCC        |||   CCC        CCC            >>>
       <<<      CCC        CCC       |||    CCC        CCC         >>>
         <<<     CCCCCC     CCCCCC   |||     CCCCCC     CCCCCC   >>>
   *************************************************************************

     ****************************************************************
     * CFOUR Coupled-Cluster techniques for Computational Chemistry *
     ****************************************************************


   Department of Chemistry                Institut fuer Physikalische Chemie
   University of Florida                  Universitaet Mainz
   Gainesville, FL 32611, USA             D-55099 Mainz, Germany

   Department of Chemistry                Fakultaet fuer Chemie und Biowiss.
   Johns Hopkins University               Karlsruher Institut fuer Technologie
   Baltimore, MD 21218, USA               D-76131 Karlsruhe, Germany

   Department of Chemistry                Department of Physical Chemistry
   Southern Methodist University          Eotvos Lorand University
   Dallas, TX 75275, USA                  H-1053 Budapest, Hungary


                       Version 2.1

                     node020                                           
                     Thu 28 Aug 2025 11:23:43 PM PDT                   
                     integer*8 version is running

********************************************************************************
*                          Input from ZMAT file                                *
********************************************************************************
Optimization on FeCO4 (C3v), S0                                                 
Fe                                                                              
C 1 rFeCAx*                                                                     
C 1 rFeCEq* 2 aCAxCEq*                                                          
C 1 rFeCEq* 2 aCAxCEq* 3 dC                                                     
C 1 rFeCEq* 2 aCAxCEq* 3 dnC                                                    
O 1 rFeOAx* 3 aCAxCEq* 2 d0                                                     
O 1 rFeOEq* 2 aCAxOEq* 3 d0                                                     
O 1 rFeOEq* 2 aCAxOEq* 4 d0                                                     
O 1 rFeOEq* 2 aCAxOEq* 5 d0                                                     
                                                                                
rFeCAx  =    1.766187962670023                                                  
rFeCEq  =    1.848613849159921                                                  
rFeOAx  =    2.926573392448320                                                  
rFeOEq  =    3.005744198822011                                                  
aCAxCEq =   91.938235663845120                                                  
aCAxOEq =   91.040423263180415                                                  
d0      =    0.00000                                                            
dnC     = -120.00000                                                            
dC      =  120.0000                                                             
                                                                                
*ACES2(CALC = CCSD(T)                                                           
      BASIS = SPECIAL                                                           
FROZEN_CORE = ON                                                                
   SCF_CONV = 8                                                                 
 OCCUPATION = 28-13                                                             
LOCK_ORBOCC = ON                                                                
SCF_DAMPING = 100                                                               
    CC_CONV = 6                                                                 
 LINEQ_CONV = 6                                                                 
   SCF_MAXCYC = 500                                                             
    CC_MAXCYC = 500                                                             
 LINEQ_MAXCYC = 500                                                             
       MEMORY = 32                                                              
     MEM_UNIT = GB)                                                             
                                                                                
Fe:cc-pVTZ                                                                      
C:cc-pVTZ                                                                       
C:cc-pVTZ                                                                       
C:cc-pVTZ                                                                       
C:cc-pVTZ                                                                       
O:cc-pVTZ                                                                       
O:cc-pVTZ                                                                       
O:cc-pVTZ                                                                       
O:cc-pVTZ                                                                       
                                                                                
********************************************************************************
    -------------------------------------------------------------------
                    CFOUR Control Parameters 
    -------------------------------------------------------------------
        External           Internal           Value            Units
          Name               Name
    -------------------------------------------------------------------
       ABCDTYPE             IABCDT         STANDARD    [  0]    ***   
       ANHARMONIC           IANHAR         OFF         [  0]    ***   
       ANH_ALGORIT          IANALG         STANDARD    [  0]    ***   
       ANH_DERIVAT          IANDER         SECOND      [  1]    ***   
       ANH_MODE             ANHMOD         VIBRATION   [  0]    ***   
       ANH_STEPSIZ          ICUBST             50000          x 10-6  
       ANH_SYMMETR          IANHSM         ABELIAN     [  0]    ***   
       AO_LADDERS           IAOLAD         SINGLEPASS  [  1]    ***   
       AV_SCF               IAVSCF         OFF         [  0]    ***   
       BASIS                IBASIS         SPECIAL     [  0]    ***   
       BOTHVECTORS          BOTHVC         OFF         [  0]    ***   
       BOX_POTENT           IPIAB          OFF         [  0]    ***   
       BREIT                IBREIT         OFF         [  0]    ***   
       BRUCK_CONV           IBRTOL          10D-  4             ***   
       BRUECKNER            IBRKNR         OFF         [  0]    ***   
       BUFFERSIZE           IBUFFS              4096            ***   
       CACHE_RECS           ICHREC             10               ***   
       CALCLEVEL            ICLLVL         CCSD(T)     [ 22]    ***   
       CCORBOPT             ICCORB         OFF         [  0]  x 0.01  
       CC_CONV              ICCCNV          10D-  6             ***   
       CC_EXPORDER          ICCEOR              5               ***   
       CC_EXTRAPOL          ICCEXT         DIIS        [  1]    ***   
       CC_GUESS             ICCGES         MP2         [  0]    ***   
       CC_MAXCYC            ICCCYC            500              cycles 
       CC_PROGRAM           ICCPRO         VCC         [  0]    ***   
       CHARGE               ICHRGE              0               ***   
       CHOLESKY             ICHOLE         OFF         [  0]    ***   
       CIS_CONV             ICISTL              5               ***   
       COMM_SIZE            IPSIZE            ***               ***   
       CONSTANT             ICONST         OLD         [  1]    ***   
       CONTINUUM            ICONTU         NONE        [  0]    ***   
       CONTRACTION          ICNTYP         GENERAL     [  1]    ***   
       COORDINATES          ICOORD         INTERNAL    [  0]    ***   
       CPHF_CONVER          ICPHFT          10D- 16             ***   
       CPHF_MAXCYC          ICPHFC             64              cycles 
       CUBIC                ICUBIC         OFF         [  0]    ***   
       CURVILINEAR          ICURVY         OFF         [  0]    ***   
       DBOC                 IDBOC          OFF         [  0]    ***   
       DCT                  IDCT           OFF         [  0]    ***   
       DERIV_LEV            IDRLVL         FIRST       [  1]    ***   
       DEVMEM_SIZE          IDVMEM         *********           MByte  
       DIAG_MRCC            IEOMST          10D-  0             ***   
       DIFF_TYPE            IDIFTY         RELAXED     [  0]    ***   
       DIRECT               IDIRCT         OFF         [  0]    ***   
       DROPMO               IDRPMO      NONE         
       ECP                  IECP           OFF         [  0]    ***   
       EIGENVECTOR          IVEC                1               ***   
       EL_ANHARM            IELANH         OFF         [  0]    ***   
       EOMFOLLOW            IEOMSR         ENERGY      [  0]    ***   
       EOMIP                IEOMIP         OFF         [  0]    ***   
       EOMLEVEL             HBARFM         SAME        [  0]    ***   
       EOM_MRCC             IMRCCE         NEW         [  1]    ***   
       EOM_NONIT            EOMNON         OFF         [  0]    ***   
       EOM_NSING            IEOMSI          10D-  0             ***   
       EOM_NSTATES          IMRCCD         DAVIDSON    [  0]    ***   
       EOM_NTRIP            IEOMTR          10D-  0             ***   
       EOM_ORDER            IEXORD         ENERGY      [  0]    ***   
       EOM_PROPSTA          IEOMST              0               ***   
       ESTATE_CONV          IEXTOL          10D-  5             ***   
       ESTATE_DIAG          IEXDIG         ITERATIVE   [  0]    ***   
       ESTATE_LOCK          IESLOC         ON          [  1]    ***   
       ESTATE_MAXC          IEXMXC             40               ***   
       ESTATE_PROP          IEXPRP         OFF         [  0]    ***   
       EVAL_HESS            IRECAL              0            # of cyc.
       EXCITATION           IEXCIT              0               ***   
       EXCITE               IEXCIT         NONE        [  0]    ***   
       EXTERN_POT           IEXPOT         OFF         [  0]    ***   
       FCGRADNEW            IFCGNW         ON          [  1]    ***   
       FC_FIELD             IFINFC              0             x 10-6  
       FD_CALTYPE           IFDCAL         GRADONLY    [  0]    ***   
       FD_PROJECT           IFDPRJ         OFF         [  1]    ***   
       FD_STEPSIZE          IDISFD              0            10-4 bohr
       FD_USEGROUP          IFDGRP         FULL        [  0]    ***   
       FILE_RECSIZ          IFLREC              4096           words  
       FINITE_PERT          IFIPER              0             x 10-6  
       FIXGEOM              IFIXGM         OFF         [  0]    ***   
       FOCK                 IFOCK          AO          [  1]    ***   
       FREQ_ALGORI          IVIALG         STANDARD    [  0]    ***   
       FROZEN_CORE          IFROCO         ON          [  1]    ***   
       GAMMA_ABCD           IGABCD         STORE       [  0]    ***   
       GAMMA_ABCI           IGABCI         STORE       [  0]    ***   
       GENBAS_1             IGNBS1              0               ***   
       GENBAS_2             IGNBS2              0               ***   
       GENBAS_3             IGNBS3              0               ***   
       GENBAS_4             IGNBS4              0               ***   
       GEO_CONV             ICONTL              5              H/bohr 
       GEO_MAXCYC           IOPTCY             50               ***   
       GEO_MAXSTEP          IMXSTP            300            millibohr
       GEO_METHOD           INR            NR          [  0]    ***   
       GIAO                 IGIAO          OFF         [  1]    ***   
       GIMIC                IGIMIC         OFF         [  0]    ***   
       GRID                 IGRID          OFF         [  0]    ***   
       GRID_ALGO            IGALGO         SERIAL      [  0]    ***   
       GUESS                IGUESS         MOREAD      [  0]    ***   
       HBAR                 IHBAR          OFF         [  0]    ***   
       HESS_TYPE            IHESTP         SCF         [  0]    ***   
       HF2_FILE             IHF2Fl         USE         [  1]    ***   
       HFSTABILITY          ISTABL         OFF         [  0]    ***   
       INCORE               INCORE         OFF         [  0]    ***   
       INPUT_MRCC           IMRCC          ON          [  1]    ***   
       INTEGRALS            INTTYP         VMOL        [  1]    ***   
       JODA_PRINT           IJPRNT              0               ***   
       KEYWORD_OUT          IDMPKW         NO          [  0]    ***   
       LINDEP_TOL           ILINDP              8               ***   
       LINEQ_CONV           IZTACN          10D-  6           cycles  
       LINEQ_EXPOR          ILMAXD              5               ***   
       LINEQ_MAXCY          ILMAXC            500               ***   
       LINEQ_TYPE           ILTYPE         DIIS        [  1]    ***   
       LOCK_ORBOCC          ILOCOC         ON          [  1]    ***   
       MEMORY_SIZE          IMEMSZ         *********           words  
       MEM_UNIT             IMEMU          GB          [  3]    ***   
       MRCC                 IMRCCC         OFF         [  0]    ***   
       MULTIPLICTY          IMULTP              1               ***   
       NACOUPLING           IVCOUP         OFF         [  0]    ***   
       NEGEVAL              IDIE           ABORT       [  0]    ***   
       NEWNORM              INEWNO         OFF         [  0]    ***   
       NON-HF               INONHF         OFF         [  0]    ***   
       NTOP_TAMP            ITOPT2             15               ***   
       NUC_MODEL            INUCMO         POINT       [  0]    ***   
       OCCUPATION           IOCCU   28, 13,
       OPEN-SHELL           IOPEN          SPIN-ORBITAL[  0]    ***   
       OPTVIB               IOPTVB         OFF         [  0]    ***   
       ORBITALS             IORBTP         STANDARD    [  0]    ***   
       PARALLEL             IPARAL         ON          [  1]    ***   
       PARA_INT             IPINTS         ON          [  1]    ***   
       PARA_PRINT           IPPRIN              0               ***   
       PERT_ORB             IPTORB         CANONICAL   [  1]    ***   
       POINTS               IGRDFD              0               ***   
       PRINT                IPRNT               0               ***   
       PROPS                IPROPS         OFF         [  0]    ***   
       PROP_INTEGR          IINTYP         INTERNAL    [  0]    ***   
       PSI                  IPSI           OFF         [  0]    ***   
       QC_ALG               IQCALG         FLM         [  0]    ***   
       QC_LINALG            IQCLIN         TRIDIAG     [  2]    ***   
       QC_MAXCYC            IQCMAX          10D-100           cycles  
       QC_MAXSCFCY          IQCMSC          10D- 15           cycles  
       QC_RTRUST            IQCRTR          10D-  0           x 10-3  
       QC_SKIPSCF           IQCSKI         OFF         [  0]    ***   
       QC_START             IQCSTA          10D-  1             ***   
       QRHFGUESS            IQGUES         OFF         [  0]    ***   
       QUARTIC              IQUART         OFF         [  0]    ***   
       RAMAN_INT            IRAMIN         OFF         [  0]    ***   
       RAMAN_ORB            IRAMRE         UNRELAXED   [  0]    ***   
       RDO                  IRDOFM         ON          [  1]    ***   
       REDUCE_REPR          REDREP         Ir          [  0]    ***   
       REFERENCE            IREFNC         RHF         [  0]    ***   
       RELATIVIST           IRELAT         OFF         [  0]    ***   
       RELAX_DENS           IRDENS         ON          [  1]    ***   
       RESET_FLAGS          IRESET         OFF         [  0]    ***   
       RESTART_CC           ICCRES         OFF         [  0]    ***   
       ROT_EVEC             ROTVEC              0               ***   
       SAVE_INTS            ISVINT         OFF         [  0]    ***   
       SCALE_ON             ISTCRT              0               ***   
       SCF_CONV             ISCFCV          10D-  8             ***   
       SCF_DAMPING          IDAMP             100             x 10-3  
       SCF_EXPORDE          IRPPOR              6               ***   
       SCF_EXPSTAR          IRPPLS              8               ***   
       SCF_EXTRAPO          IRPP           ON          [  1]    ***   
       SCF_MAXCYC           ISCFCY            500              cycles 
       SCF_NOSTOP           ISCFST         OFF         [  0]    ***   
       SCF_PRINT            ISCFPR              0               ***   
       SCF_PROG             ISCFPR         SCF         [  0]    ***   
       SD_FIELD             IFINSD              0             x 10-6  
       SOPERT               IPERSO         OFF         [  0]    ***   
       SPHERICAL            IDFGHI         ON          [  1]    ***   
       SPINORBIT            ISOCAL         OFF         [  0]    ***   
       SPINROTATIO          ISRCON         OFF         [  0]    ***   
       SPIN_FLIP            ISPFLP         OFF         [  0]    ***   
       SPIN_ORBIT           ISPORB         OFF         [  0]    ***   
       SPIN_SCAL            ISCSMP         OFF         [  0]    ***   
       STEEPSCALE           ISTPSC              1000          x 10-3  
       SUBGROUP             ISUBGP         DEFAULT     [  0]    ***   
       SUBGRPAXIS           ISBXYZ         X           [  0]    ***   
       SYMMETRY             ISYM           ON          [  0]    ***   
       SYM_CHECK            ISYMCK         OVERRIDE    [  1]    ***   
       T3_EXTRAPOL          IT3EXT         OFF         [  0]    ***   
       T4_EXTRAPOL          IT4EXP         OFF         [  0]    ***   
       TAMP_SUM             IEVERY              5               ***   
       TESTSUITE            ITESTS         OFF         [  0]    ***   
       THERMOCH             ITHERM         OFF         [  0]    ***   
       TOL_CHOLESK          ITOLCH          10D-  4             ***   
       TRANGRAD             IRESRM         OFF         [  0]    ***   
       TRANS_INV            ITRAIN         USE         [  0]    ***   
       TREAT_PERT           ITREAT         SIMULTANEOUS[  0]    ***   
       TRIP_ALGORI          ITRALG         NORMAL      [  0]    ***   
       UIJ_THRESHO          IUIJTH              1               ***   
       UNITS                IUNITS         ANGSTROM    [  0]    ***   
       UNOS                 IUNOS          OFF         [  0]    ***   
       UPDATE_HESS          IHUPDT         ON          [  1]    ***   
       VIBPHASE             ISETPH         STANDARD    [  0]    ***   
       VIBRATION            IVIB           NO          [  0]    ***   
       VIB_ALGORIT          IGEALG         STANDARD    [  0]    ***   
       VNATORB              IVNORB         OFF         [  0]    ***   
       VTRAN                IVTRAN         FULL/PARTIAL[  0]    ***   
       XFIELD               IXEFLD              0             x 10-6  
       XFORM_TOL            IXFTOL          10D- 11             ***   
       YFIELD               IYEFLD              0             x 10-6  
       ZFIELD               IZEFLD              0             x 10-6  
       ZSCALE_EXP           IZEXPS         OFF         [  0]    ***   
    -------------------------------------------------------------------
   9 entries found in Z-matrix 
   Job Title : Optimization on FeCO4 (C3v), S0                                                 
   There are  9 unique internal coordinates.
   Of these,  6 will be optimized.
   User supplied Z-matrix: 
--------------------------------------------------------------------------------
       SYMBOL    BOND      LENGTH    ANGLE     ANGLE     DIHED     ANGLE
                  TO      (ANGST)    WRT      (DEG)      WRT      (DEG)
--------------------------------------------------------------------------------
        Fe   
        C          1         rFeCA
        C          1         rFeCE      2        aCAxC
        C          1         rFeCE      2        aCAxC      3        dC   
        C          1         rFeCE      2        aCAxC      3        dnC  
        O          1         rFeOA      3        aCAxC      2        d0   
        O          1         rFeOE      2        aCAxO      3        d0   
        O          1         rFeOE      2        aCAxO      4        d0   
        O          1         rFeOE      2        aCAxO      5        d0   
                  *Initial values for internal coordinates* 
                      Name             Value
                        rFeCA           1.7661879627
                        rFeCE           1.8486138492
                        aCAxC          91.9382356638
                        dC            120.0000000000
                        dnC          -120.0000000000
                        rFeOA           2.9265733924
                        d0              0.0000000000
                        rFeOE           3.0057441988
                        aCAxO          91.0404232632
--------------------------------------------------------------------------------
  filter applied 
  filter applied 
   Rotational constants (in cm-1): 
          0.0303053177             0.0392858263             0.0392858263
   Rotational constants (in MHz): 
        908.5306970135          1177.7596080323          1177.7596080323
********************************************************************************
   The full molecular point group is C3v .
   The largest Abelian subgroup of the full molecular point group is C s .
   The computational point group is C s .
********************************************************************************
--------------------------------------------------------------------------------
   Analysis of internal coordinates specified by Z-matrix 
--------------------------------------------------------------------------------
   *The nuclear repulsion energy is  578.548046005878746 a.u.
  *ERROR* Parameters 11 and  3 are not equivalent [both called aCAxC].
  *ERROR* Parameters 11 and  5 are not equivalent [both called aCAxC].
  *ERROR* Parameters 11 and  8 are not equivalent [both called aCAxC].
  *WARNING* Parameter aCAxC[ 11] cannot have a nonzero derivative,
    but is being optimized.  Reconstruction of Z-matrix recommended.
   *There are   6 degrees of freedom within the tot. symm. molecular subspace.
   *Z-matrix requests optimization of   6 coordinates.
   *The following   6 parameters can have non-zero 
    derivatives within the totally symmetric subspace:
             rFeCE[ 2]  rFeCA[ 1]  aCAxO[14]  aCAxC[ 8]  rFeOE[19]  rFeOA[10]
   *The following   6 parameters are to be optimized:
             rFeCA[ 1]  rFeCE[ 2]  aCAxC[ 3]  rFeOA[10]  rFeOE[13]  aCAxO[14]

--------------------------------------------------------------------------------


 ----------------------------------------------------------------
         Coordinates used in calculation (QCOMP) 
 ----------------------------------------------------------------
 Z-matrix   Atomic            Coordinates (in bohr)
  Symbol    Number           X              Y              Z
 ----------------------------------------------------------------
     FE       26        -0.71052471    -0.00000000     0.00000000
     C         6         2.62708753    -0.00000000     0.00000000
     C         6        -0.82867812     1.74568797    -3.02362026
     C         6        -0.82867812    -3.49137594    -0.00000000
     C         6        -0.82867812     1.74568797     3.02362026
     O         8         4.81989865    -0.00000000     0.00000000
     O         8        -0.81366172     2.83954904    -4.91824321
     O         8        -0.81366172    -5.67909808     0.00000000
     O         8        -0.81366172     2.83954904     4.91824321
 ----------------------------------------------------------------

   Interatomic distance matrix (Angstroms) 

                 FE            C             C             C             C    
                [ 1]        [ 2]        [ 3]        [ 4]        [ 5]
  FE   [ 1]     0.00000
  C    [ 2]     1.76619     0.00000
  C    [ 3]     1.84861     2.59955     0.00000
  C    [ 4]     1.84861     2.59955     3.20006     0.00000
  C    [ 5]     1.84861     2.59955     3.20006     3.20006     0.00000
  O    [ 6]     2.92657     1.16039     3.51400     3.51400     3.51400
  O    [ 7]     3.00574     3.51379     1.15772     4.24234     4.24234
  O    [ 8]     3.00574     3.51379     4.24234     1.15772     4.24234
  O    [ 9]     3.00574     3.51379     4.24234     4.24234     1.15772

                 O             O             O             O    
                [ 6]        [ 7]        [ 8]        [ 9]
  O    [ 6]     0.00000
  O    [ 7]     4.23306     0.00000
  O    [ 8]     4.23306     5.20524     0.00000
  O    [ 9]     4.23306     5.20524     5.20524     0.00000
 rotcon2
   Rotational constants (in cm-1): 
          0.0303053177             0.0392858263             0.0392858263
   Rotational constants (in MHz): 
        908.5306970135          1177.7596080323          1177.7596080323
  ECPDATA file not present.   Using default ECPDATA. 
  There are  17 frozen-core orbitals.
  There are  308 basis functions.
 @CHECKOUT-I, Total execution time (CPU/WALL):        1.37/       0.54 seconds.
--executable xjoda finished with status     0 in        0.58 seconds (walltime).
 --invoking executable--
/opt/cfour/2.1/bin/xvmol
 SERIAL VERSION OF MOLECULE STARTED
********************************************************************************
                    INPUT FROM MOL FILE
********************************************************************************
INTGRL        1    0    1    0    0    0    0    0    0                         
         *** CFOUR Program System (Release V0.1) ***                            
Optimization on FeCO4 (C3v), S0                                                 
    7    1 Z          0.10E-08              0    0                              
   9999.00      3.00                                                            
         26.00000000    1    5    1    1    1    1    1                         
FE#1  -0.710524706982202  -0.000000000000000   0.000000000000000                
   20    7                                                                      
   4316265.0000000000        8.0488029999999998E-006  -4.1559539999999997E-006  
   646342.40000000002        6.2583059999999998E-005  -3.2314010000000003E-005  
   147089.70000000001        3.2902389999999999E-004  -1.6995250000000000E-004  
   41661.519999999997        1.3873550000000001E-003  -7.1713690000000004E-004  
   13590.770000000000        5.0232560000000002E-003  -2.6036250000000000E-003  
   4905.7500000000000        1.6101399999999998E-002  -8.3991090000000001E-003  
   1912.7460000000001        4.5900339999999998E-002  -2.4341089999999999E-002  
   792.60429999999997       0.11361540000000001       -6.2519480000000002E-002  
   344.80650000000003       0.22838690000000000      -0.13659289999999999       
   155.89990000000000       0.32211590000000001      -0.23127070000000000       
   72.230909999999994       0.23836610000000000      -0.23837340000000001       
   32.725059999999999        7.4046669999999995E-002   3.1238370000000001E-002  
   15.667619999999999        9.2141970000000004E-002  0.50868179999999996      -
   7.5034830000000001        9.3397900000000006E-002  0.49876949999999998      -
   3.3122229999999999        1.5739650000000001E-002   9.0335520000000002E-002  
   1.5584709999999999       -4.1866819999999998E-004  -6.0053370000000003E-003  
  0.68391400000000002        5.3763179999999999E-005   2.3124539999999999E-004  
  0.14675700000000000       -3.8166539999999997E-005  -5.6436799999999999E-004  
   7.0583000000000007E-002   4.3196030000000000E-005   4.9922599999999997E-004  
   3.1448999999999998E-002  -3.4010190000000000E-006  -1.0152930000000000E-004  
   16    6                                                                      
   17745.689999999999        4.1000000000000000E-005  -1.5000000000000000E-005  
   4200.7209999999995        3.6900000000000002E-004  -1.2999999999999999E-004  
   1364.4290000000001        2.1289999999999998E-003  -7.5100000000000004E-004  
   522.08060000000000        9.3690000000000006E-003  -3.3289999999999999E-003  
   221.45949999999999        3.3097000000000001E-002  -1.1912000000000001E-002  
   100.90960000000000        9.4431000000000001E-002  -3.4932999999999999E-002  
   48.401150000000001       0.20807700000000001       -7.9989000000000005E-002  
   23.985360000000000       0.33233299999999999      -0.13463600000000001       
   12.182499999999999       0.33298699999999998      -0.13859800000000000       
   6.2422979999999999       0.15684300000000001        3.0277999999999999E-002  
   3.1109439999999999        2.1548999999999999E-002  0.33321600000000001      -
   1.5099579999999999       -2.0950000000000001E-003  0.45615299999999998      -
  0.71084499999999995       -1.7390000000000001E-003  0.28505100000000000       
  0.27318999999999999       -2.9999999999999997E-004   4.6143999999999998E-002  
  0.10423300000000001        2.9000000000000000E-005  -3.2490000000000002E-003 -
   3.8290999999999999E-002  -1.1000000000000000E-005   1.3569999999999999E-003 -
    8    4                                                                      
   113.34399999999999        3.5300000000000002E-003  -3.8899999999999998E-003  
   33.641399999999997        2.5784000000000001E-002  -2.8441999999999999E-002  
   12.331000000000000        9.9118999999999999E-002 -0.11242900000000000       
   4.9947800000000004       0.23907300000000001      -0.27425699999999997       
   2.0728000000000000       0.35719899999999999      -0.31554599999999999       
  0.83075299999999996       0.36218800000000001        5.7109000000000000E-002 -
  0.30917800000000001       0.23646100000000000       0.56360399999999999       
  0.10013000000000000        6.0117999999999998E-002  0.38463700000000001       
    2    2                                                                      
   3.2757999999999998        1.0000000000000000        0.0000000000000000       
  0.79200000000000004        0.0000000000000000        1.0000000000000000       
    1    1                                                                      
   2.0897000000000001        1.0000000000000000                                 
          6.00000000    1    4    1    1    1    1                              
C #2   2.627087526559316  -0.000000000000000   0.000000000000000                
   10    4                                                                      
   8236.0000000000000        5.3100000000000000E-004   0.0000000000000000       
   1235.0000000000000        4.1079999999999997E-003   0.0000000000000000       
   280.80000000000001        2.1087000000000002E-002   0.0000000000000000       
   79.269999999999996        8.1852999999999995E-002   0.0000000000000000       
   25.590000000000000       0.23481700000000000        0.0000000000000000       
   8.9969999999999999       0.43440099999999998        0.0000000000000000      -
   3.3190000000000000       0.34612900000000002        0.0000000000000000      -
  0.90590000000000004        3.9378000000000003E-002   1.0000000000000000       
  0.36430000000000001       -8.9829999999999997E-003   0.0000000000000000       
  0.12850000000000000        2.3850000000000000E-003   0.0000000000000000       
    5    3                                                                      
   18.710000000000001        0.0000000000000000        1.4031000000000000E-002  
   4.1330000000000000        0.0000000000000000        8.6865999999999999E-002  
   1.2000000000000000        0.0000000000000000       0.29021599999999997       
  0.38269999999999998        1.0000000000000000       0.50100800000000001       
  0.12089999999999999        0.0000000000000000       0.34340599999999999       
    2    2                                                                      
   1.0970000000000000        1.0000000000000000        0.0000000000000000       
  0.31800000000000000        0.0000000000000000        1.0000000000000000       
    1    1                                                                      
  0.76100000000000001        1.0000000000000000                                 
          6.00000000    1    4    1    1    1    1                              
C #3  -0.828678120359226   1.745687972349393  -3.023620262271042                
   10    4                                                                      
   8236.0000000000000        5.3100000000000000E-004   0.0000000000000000       
   1235.0000000000000        4.1079999999999997E-003   0.0000000000000000       
   280.80000000000001        2.1087000000000002E-002   0.0000000000000000       
   79.269999999999996        8.1852999999999995E-002   0.0000000000000000       
   25.590000000000000       0.23481700000000000        0.0000000000000000       
   8.9969999999999999       0.43440099999999998        0.0000000000000000      -
   3.3190000000000000       0.34612900000000002        0.0000000000000000      -
  0.90590000000000004        3.9378000000000003E-002   1.0000000000000000       
  0.36430000000000001       -8.9829999999999997E-003   0.0000000000000000       
  0.12850000000000000        2.3850000000000000E-003   0.0000000000000000       
    5    3                                                                      
   18.710000000000001        0.0000000000000000        1.4031000000000000E-002  
   4.1330000000000000        0.0000000000000000        8.6865999999999999E-002  
   1.2000000000000000        0.0000000000000000       0.29021599999999997       
  0.38269999999999998        1.0000000000000000       0.50100800000000001       
  0.12089999999999999        0.0000000000000000       0.34340599999999999       
    2    2                                                                      
   1.0970000000000000        1.0000000000000000        0.0000000000000000       
  0.31800000000000000        0.0000000000000000        1.0000000000000000       
    1    1                                                                      
  0.76100000000000001        1.0000000000000000                                 
          6.00000000    1    4    1    1    1    1                              
C #4  -0.828678120359226  -3.491375944698786  -0.000000000000000                
   10    4                                                                      
   8236.0000000000000        5.3100000000000000E-004   0.0000000000000000       
   1235.0000000000000        4.1079999999999997E-003   0.0000000000000000       
   280.80000000000001        2.1087000000000002E-002   0.0000000000000000       
   79.269999999999996        8.1852999999999995E-002   0.0000000000000000       
   25.590000000000000       0.23481700000000000        0.0000000000000000       
   8.9969999999999999       0.43440099999999998        0.0000000000000000      -
   3.3190000000000000       0.34612900000000002        0.0000000000000000      -
  0.90590000000000004        3.9378000000000003E-002   1.0000000000000000       
  0.36430000000000001       -8.9829999999999997E-003   0.0000000000000000       
  0.12850000000000000        2.3850000000000000E-003   0.0000000000000000       
    5    3                                                                      
   18.710000000000001        0.0000000000000000        1.4031000000000000E-002  
   4.1330000000000000        0.0000000000000000        8.6865999999999999E-002  
   1.2000000000000000        0.0000000000000000       0.29021599999999997       
  0.38269999999999998        1.0000000000000000       0.50100800000000001       
  0.12089999999999999        0.0000000000000000       0.34340599999999999       
    2    2                                                                      
   1.0970000000000000        1.0000000000000000        0.0000000000000000       
  0.31800000000000000        0.0000000000000000        1.0000000000000000       
    1    1                                                                      
  0.76100000000000001        1.0000000000000000                                 
          8.00000000    1    4    1    1    1    1                              
O #5   4.819898647407699  -0.000000000000000   0.000000000000000                
   10    4                                                                      
   15330.000000000000        5.0799999999999999E-004   0.0000000000000000       
   2299.0000000000000        3.9290000000000002E-003   0.0000000000000000       
   522.39999999999998        2.0243000000000001E-002   0.0000000000000000       
   147.30000000000001        7.9181000000000001E-002   0.0000000000000000       
   47.549999999999997       0.23068700000000000        0.0000000000000000       
   16.760000000000002       0.43311800000000000        0.0000000000000000      -
   6.2069999999999999       0.35026000000000002        0.0000000000000000      -
   1.7520000000000000        4.2728000000000002E-002   1.0000000000000000       
  0.68820000000000003       -8.1539999999999998E-003   0.0000000000000000       
  0.23840000000000000        2.3809999999999999E-003   0.0000000000000000       
    5    3                                                                      
   34.460000000000001        0.0000000000000000        1.5928000000000001E-002  
   7.7489999999999997        0.0000000000000000        9.9739999999999995E-002  
   2.2799999999999998        0.0000000000000000       0.31049199999999999       
  0.71560000000000001        1.0000000000000000       0.49102600000000002       
  0.21400000000000000        0.0000000000000000       0.33633700000000000       
    2    2                                                                      
   2.3140000000000001        1.0000000000000000        0.0000000000000000       
  0.64500000000000002        0.0000000000000000        1.0000000000000000       
    1    1                                                                      
   1.4279999999999999        1.0000000000000000                                 
          8.00000000    1    4    1    1    1    1                              
O #6  -0.813661715265613   2.839549039187778  -4.918243206456620                
   10    4                                                                      
   15330.000000000000        5.0799999999999999E-004   0.0000000000000000       
   2299.0000000000000        3.9290000000000002E-003   0.0000000000000000       
   522.39999999999998        2.0243000000000001E-002   0.0000000000000000       
   147.30000000000001        7.9181000000000001E-002   0.0000000000000000       
   47.549999999999997       0.23068700000000000        0.0000000000000000       
   16.760000000000002       0.43311800000000000        0.0000000000000000      -
   6.2069999999999999       0.35026000000000002        0.0000000000000000      -
   1.7520000000000000        4.2728000000000002E-002   1.0000000000000000       
  0.68820000000000003       -8.1539999999999998E-003   0.0000000000000000       
  0.23840000000000000        2.3809999999999999E-003   0.0000000000000000       
    5    3                                                                      
   34.460000000000001        0.0000000000000000        1.5928000000000001E-002  
   7.7489999999999997        0.0000000000000000        9.9739999999999995E-002  
   2.2799999999999998        0.0000000000000000       0.31049199999999999       
  0.71560000000000001        1.0000000000000000       0.49102600000000002       
  0.21400000000000000        0.0000000000000000       0.33633700000000000       
    2    2                                                                      
   2.3140000000000001        1.0000000000000000        0.0000000000000000       
  0.64500000000000002        0.0000000000000000        1.0000000000000000       
    1    1                                                                      
   1.4279999999999999        1.0000000000000000                                 
          8.00000000    1    4    1    1    1    1                              
O #7  -0.813661715265613  -5.679098078375556   0.000000000000000                
   10    4                                                                      
   15330.000000000000        5.0799999999999999E-004   0.0000000000000000       
   2299.0000000000000        3.9290000000000002E-003   0.0000000000000000       
   522.39999999999998        2.0243000000000001E-002   0.0000000000000000       
   147.30000000000001        7.9181000000000001E-002   0.0000000000000000       
   47.549999999999997       0.23068700000000000        0.0000000000000000       
   16.760000000000002       0.43311800000000000        0.0000000000000000      -
   6.2069999999999999       0.35026000000000002        0.0000000000000000      -
   1.7520000000000000        4.2728000000000002E-002   1.0000000000000000       
  0.68820000000000003       -8.1539999999999998E-003   0.0000000000000000       
  0.23840000000000000        2.3809999999999999E-003   0.0000000000000000       
    5    3                                                                      
   34.460000000000001        0.0000000000000000        1.5928000000000001E-002  
   7.7489999999999997        0.0000000000000000        9.9739999999999995E-002  
   2.2799999999999998        0.0000000000000000       0.31049199999999999       
  0.71560000000000001        1.0000000000000000       0.49102600000000002       
  0.21400000000000000        0.0000000000000000       0.33633700000000000       
    2    2                                                                      
   2.3140000000000001        1.0000000000000000        0.0000000000000000       
  0.64500000000000002        0.0000000000000000        1.0000000000000000       

Running with 32 threads/proc

    1    1                                                                      
   1.4279999999999999        1.0000000000000000                                 
FINISH                                                                          

********************************************************************************
 ONE- AND TWO-ELECTRON INTEGRALS OVER SYMMETRY-ADAPTED AOS ARE CALCULATED.

  SPHERICAL HARMONICS ARE USED.
  
  INTEGRALS LESS THAN  0.10E-13 ARE NEGLECTED.

  NUCLEAR REPULSION ENERGY :  578.5480460059 A.U.
  @MOLECU-I, ONE ELECTRON INTEGRALS (CPU/WALL):        1.18/       0.20 SECONDS.
  @TWOEL-I,  148864795 INTEGRALS OF SYMMETRY TYPE  I I I I
  @TWOEL-I,  216469580 INTEGRALS OF SYMMETRY TYPE  I J I J
  @TWOEL-I,  111677759 INTEGRALS OF SYMMETRY TYPE  I I J J
  @TWOEL-I, TOTAL NUMBER OF 2-E INTEGRALS  477012134.
  @MOLECU-I, TWO ELECTRON INTEGRALS (CPU/WALL):     4069.24/     174.62 SECONDS.
 @CHECKOUT-I, Total execution time (CPU/WALL):     4070.49/     174.83 seconds.
--executable xvmol finished with status     0 in      174.86 seconds (walltime).
 --invoking executable--
/opt/cfour/2.1/bin/xvmol2ja
 @GETMEM-I,  Allocated   30517 MB of main memory.
 @CHECKOUT-I, Total execution time (CPU/WALL):        0.35/       0.03 seconds.
--executable xvmol2ja finished with status     0 in        0.07 seconds (walltime).
 --invoking executable--
/opt/cfour/2.1/bin/xvscf
  There are  308 functions in the AO basis.

  There are 2 irreducible representations.

       Irrep        # of functions
         1                184
         2                124


  Parameters for SCF calculation: 
        SCF reference function:  RHF  
  Maximum number of iterations:  500
     Full symmetry point group: C3v 
     Computational point group: C s 
        Initial density matrix: MOREAD                 
     SCF convergence tolerance: 10**(- 8)
  DIIS convergence acceleration:  ON
          Latest start for DIIS:   8
                     DIIS order:   6

     Alpha population by irrep:  28   13
      Beta population by irrep:  28   13


  Memory information:    4607933 words required.
  Fock matrices are constructed from AO integral file.
 @GETMEM-I,  Allocated      35 MB of main memory.
  Initialization and symmetry analysis required      0.005 seconds.

 total no. of electrons in initial guess :   0.0000000000000000     
  --------------------------------------------------------------------
  Iteration         Total Energy            Largest Density Difference
  --------------------------------------------------------------------
       0           578.548046005878973              0.0000000000D+00
   current occupation vector 
    28 13
    28 13
  applying damping factor of   0.90000000000000002     
       1          -948.789603475051649              0.2419428664D+04
   current occupation vector 
    28 13
    28 13
  applying damping factor of   0.90000000000000002     
       2         -1129.251185270854421              0.2144664566D+04
   current occupation vector 
    28 13
    28 13
  applying damping factor of   0.90000000000000002     
       3         -1139.671375996479583              0.1908564331D+04
   current occupation vector 
    28 13
    28 13
  applying damping factor of   0.90000000000000002     
       4         -1171.076030281662952              0.1913724980D+04
   current occupation vector 
    28 13
    28 13
  applying damping factor of   0.90000000000000002     
       5         -1136.391991036160562              0.1811210177D+04
   current occupation vector 
    28 13
    28 13
  applying damping factor of   0.90000000000000002     
       6         -1170.080703315140454              0.1820611302D+04
   current occupation vector 
    28 13
    28 13
  applying damping factor of   0.90000000000000002     
       7         -1133.861381988406720              0.1899670332D+04
   current occupation vector 
    28 13
    28 13
       8         -1029.799567931037927              0.1893849975D+04
   current occupation vector 
    28 13
    28 13
       9         -1625.148001461636795              0.1354414304D+03
   current occupation vector 
    28 13
    28 13
      10         -1666.697738048342217              0.1076762776D+03
   current occupation vector 
    28 13
    28 13
      11         -1682.313746279160569              0.3639462242D+02
   current occupation vector 
    28 13
    28 13
      12         -1684.911419313217721              0.1354217971D+02
   current occupation vector 
    28 13
    28 13
      13         -1681.571937379525480              0.1816805813D+02
   current occupation vector 
    28 13
    28 13
      14         -1636.016498203500760              0.2009428853D+02
   current occupation vector 
    28 13
    28 13
      15         -1621.334428735165602              0.8390626841D+02
   current occupation vector 
    28 13
    28 13
      16         -1698.310656618397843              0.1393989808D+03
   current occupation vector 
    28 13
    28 13
      17         -1706.443232909916333              0.2951971762D+01
   current occupation vector 
    28 13
    28 13
      18         -1709.906838521507325              0.3185436767D+01
   current occupation vector 
    28 13
    28 13
      19         -1712.700584692519442              0.3262838675D+01
   current occupation vector 
    28 13
    28 13
      20         -1713.247910054603835              0.7884385459D+00
   current occupation vector 
    28 13
    28 13
      21         -1713.318953076589878              0.4983383974D+00
   current occupation vector 
    28 13
    28 13
      22         -1713.338014993290017              0.1396763047D+00
   current occupation vector 
    28 13
    28 13
      23         -1713.343038430519300              0.1542326497D+00
   current occupation vector 
    28 13
    28 13
      24         -1713.344646985523923              0.7674622998D-01
   current occupation vector 
    28 13
    28 13
      25         -1713.345482139865453              0.1122921324D+00
   current occupation vector 
    28 13
    28 13
      26         -1713.345786140740074              0.4092352615D-01
   current occupation vector 
    28 13
    28 13
      27         -1713.345953540509527              0.2516373146D-01
   current occupation vector 
    28 13
    28 13
      28         -1713.346035618464157              0.1265261751D-01
   current occupation vector 
    28 13
    28 13
      29         -1713.346090869424188              0.1051739733D-01
   current occupation vector 
    28 13
    28 13
      30         -1713.346131597991644              0.1088026272D-01
   current occupation vector 
    28 13
    28 13
      31         -1713.346171835452424              0.1859202946D-01
   current occupation vector 
    28 13
    28 13
      32         -1713.346218294731898              0.2675080896D-01
   current occupation vector 
    28 13
    28 13
      33         -1713.346237110024504              0.1677908364D-01
   current occupation vector 
    28 13
    28 13
      34         -1713.346245422601442              0.1093867041D-01
   current occupation vector 
    28 13
    28 13
      35         -1713.346250371859242              0.9266442425D-02
   current occupation vector 
    28 13
    28 13
      36         -1713.346253417658772              0.6054364731D-02
   current occupation vector 
    28 13
    28 13
      37         -1713.346255299624318              0.4198852750D-02
   current occupation vector 
    28 13
    28 13
      38         -1713.346257273100491              0.5183839521D-02
   current occupation vector 
    28 13
    28 13
      39         -1713.346258187402327              0.3406163034D-02
   current occupation vector 
    28 13
    28 13
      40         -1713.346258656172722              0.2394541974D-02
   current occupation vector 
    28 13
    28 13
      41         -1713.346258873123134              0.1425672384D-02
   current occupation vector 
    28 13
    28 13
      42         -1713.346259003446448              0.1163273223D-02
   current occupation vector 
    28 13
    28 13
      43         -1713.346259053409085              0.4601721102D-03
   current occupation vector 
    28 13
    28 13
      44         -1713.346259089452360              0.3316078632D-03
   current occupation vector 
    28 13
    28 13
      45         -1713.346259123800337              0.2807041910D-03
   current occupation vector 
    28 13
    28 13
      46         -1713.346259162716706              0.2903309140D-03
   current occupation vector 
    28 13
    28 13
      47         -1713.346259190212550              0.3459599374D-03
   current occupation vector 
    28 13
    28 13
      48         -1713.346259206602099              0.3492736395D-03
   current occupation vector 
    28 13
    28 13
      49         -1713.346259215676127              0.2833907123D-03
   current occupation vector 
    28 13
    28 13
      50         -1713.346259220829324              0.2066353316D-03
   current occupation vector 
    28 13
    28 13
      51         -1713.346259226689199              0.2643486677D-03
   current occupation vector 
    28 13
    28 13
      52         -1713.346259228862891              0.1139834294D-03
   current occupation vector 
    28 13
    28 13
      53         -1713.346259233382625              0.2854797951D-03
   current occupation vector 
    28 13
    28 13
      54         -1713.346259235613616              0.2064152820D-03
   current occupation vector 
    28 13
    28 13
      55         -1713.346259236702281              0.1398289600D-03
   current occupation vector 
    28 13
    28 13
      56         -1713.346259237121103              0.4526445999D-04
   current occupation vector 
    28 13
    28 13
      57         -1713.346259237515369              0.4585695168D-04
   current occupation vector 
    28 13
    28 13
      58         -1713.346259238051516              0.9755389712D-04
   current occupation vector 
    28 13
    28 13
      59         -1713.346259238033781              0.3400116145D-04
   current occupation vector 
    28 13
    28 13
      60         -1713.346259238160201              0.4521445815D-04
   current occupation vector 
    28 13
    28 13
      61         -1713.346259238238417              0.1514866447D-04
   current occupation vector 
    28 13
    28 13
      62         -1713.346259238251150              0.2327611148D-04
   current occupation vector 
    28 13
    28 13
      63         -1713.346259238285711              0.2897367077D-04
   current occupation vector 
    28 13
    28 13
      64         -1713.346259238289804              0.1816359144D-04
   current occupation vector 
    28 13
    28 13
      65         -1713.346259238275707              0.5513097343D-05
   current occupation vector 
    28 13
    28 13
      66         -1713.346259238325274              0.4666953886D-05
   current occupation vector 
    28 13
    28 13
      67         -1713.346259238287530              0.1300768022D-05
   current occupation vector 
    28 13
    28 13
      68         -1713.346259238291168              0.2114319169D-05
   current occupation vector 
    28 13
    28 13
      69         -1713.346259238348466              0.1056575525D-05
   current occupation vector 
    28 13
    28 13
      70         -1713.346259238328457              0.8969698486D-06
   current occupation vector 
    28 13
    28 13
      71         -1713.346259238307084              0.6926041700D-06
   current occupation vector 
    28 13
    28 13
      72         -1713.346259238322546              0.6601956357D-06
   current occupation vector 
    28 13
    28 13
      73         -1713.346259238293896              0.5583533451D-06
   current occupation vector 
    28 13
    28 13
      74         -1713.346259238307084              0.3582393628D-06
   current occupation vector 
    28 13
    28 13
      75         -1713.346259238333460              0.8546799497D-06
   current occupation vector 
    28 13
    28 13
      76         -1713.346259238304810              0.1420735621D-05
   current occupation vector 
    28 13
    28 13
      77         -1713.346259238303901              0.7335409624D-06
   current occupation vector 
    28 13
    28 13
      78         -1713.346259238323910              0.6202638712D-06
   current occupation vector 
    28 13
    28 13
      79         -1713.346259238323000              0.8781479510D-06
   current occupation vector 
    28 13
    28 13
      80         -1713.346259238321181              0.7391663093D-06
   current occupation vector 
    28 13
    28 13
      81         -1713.346259238326638              0.2162178607D-06
   current occupation vector 
    28 13
    28 13
      82         -1713.346259238327548              0.3793733103D-06
   current occupation vector 
    28 13
    28 13
      83         -1713.346259238293442              0.2212069687D-06
   current occupation vector 
    28 13
    28 13
      84         -1713.346259238302991              0.6922678120D-07
   current occupation vector 
    28 13
    28 13
      85         -1713.346259238292532              0.7656837564D-07
   current occupation vector 
    28 13
    28 13
      86         -1713.346259238288894              0.4761562433D-07
   current occupation vector 
    28 13
    28 13
      87         -1713.346259238285256              0.5530002789D-07
   current occupation vector 
    28 13
    28 13
      88         -1713.346259238326638              0.2254337557D-06
   current occupation vector 
    28 13
    28 13
      89         -1713.346259238323000              0.5241584122D-07
   current occupation vector 
    28 13
    28 13
      90         -1713.346259238297534              0.3714218866D-07
   current occupation vector 
    28 13
    28 13
      91         -1713.346259238333005              0.2451175929D-07
   current occupation vector 
    28 13
    28 13
      92         -1713.346259238320727              0.2052001835D-07
   current occupation vector 
    28 13
    28 13
      93         -1713.346259238327093              0.2719822079D-07
   current occupation vector 
    28 13
    28 13
      94         -1713.346259238307084              0.2205835958D-07
   current occupation vector 
    28 13
    28 13

  SCF has converged.

 Density matrix saved to file den.dat
 total electron number:   81.999999999999559     
     E(SCF)=     -1713.346259238324819              0.7846292949D-08

  Eigenvector printing suppressed.

 @PUTMOS-I, Writing converged MOs to NEWMOS. 
 @PUTMOS-I, Symmetry   1 Full Blocks 46 Partial Blocksize   0
 @PUTMOS-I, Symmetry   2 Full Blocks 31 Partial Blocksize   0
 @PUTFOCK-I, Writing converged Fock matrix to NEWFOCK. 
 @PUTFOCK-I, Symmetry   1 Full Blocks 46 Partial Blocksize   0
 @PUTFOCK-I, Symmetry   2 Full Blocks 31 Partial Blocksize   0



  ORBITAL EIGENVALUES (ALPHA)  (1H = 27.2113834 eV)

       MO #        E(hartree)               E(eV)           FULLSYM    COMPSYM
       ----   --------------------   --------------------   -------   ---------
    1     1        -261.3425254473       -7111.4916586715      A1       A'  (1)
    2     2         -31.9186584914        -868.5508538243      A1       A'  (1)
    3     3         -27.4037863467        -745.6949368910      A1       A'  (1)
    4     4         -27.3939315853        -745.4267752014       E       A'  (1)
    5   185         -27.3939315853        -745.4267752005       E       A'' (2)
    6     5         -20.6625764025        -562.2572885207      A1       A'  (1)
    7     6         -20.6600032142        -562.1872685070               A'  (1)
    8   186         -20.6600031192        -562.1872659222               A'' (2)
    9     7         -20.6600031187        -562.1872659094               A'  (1)
   10     8         -11.3892234599        -309.9165261947      A1       A'  (1)
   11     9         -11.3887985348        -309.9049633967               A'  (1)
   12   187         -11.3887967500        -309.9049148282               A'' (2)
   13    10         -11.3887967495        -309.9049148151               A'  (1)
   14    11          -4.1201065884        -112.1138000251      A1       A'  (1)
   15    12          -2.7084207154         -73.6998744940      A1       A'  (1)
   16    13          -2.6978402071         -73.4119642280       E       A'  (1)
   17   188          -2.6978402071         -73.4119642277       E       A'' (2)
   18    14          -1.5018319654         -40.8669254118      A1       A'  (1)
   19    15          -1.4997037509         -40.8090137512               A'  (1)
   20   189          -1.4996987459         -40.8088775585               A'' (2)
   21    16          -1.4996987454         -40.8088775465               A'  (1)
   22    17          -0.8387721133         -22.8241495614      A1       A'  (1)
   23   190          -0.8061956294         -21.9376983675       E       A'' (2)
   24    18          -0.8061956290         -21.9376983569       E       A'  (1)
   25    19          -0.8024266471         -21.8351391436      A1       A'  (1)
   26    20          -0.7044454885         -19.1689362730      A1       A'  (1)
   27   191          -0.6571082515         -17.8808245672       E       A'' (2)
   28    21          -0.6571082513         -17.8808245617       E       A'  (1)
   29    22          -0.6437786841         -17.5181085965       E       A'  (1)
   30   192          -0.6437786837         -17.5181085876       E       A'' (2)
   31    23          -0.6382375911         -17.3673277927      A1       A'  (1)
   32   193          -0.6343050350         -17.2603174990      A2       A'' (2)
   33   194          -0.6323135131         -17.2061254335       E       A'' (2)
   34    24          -0.6323135129         -17.2061254272       E       A'  (1)
   35   195          -0.6183514496         -16.8261983712       E       A'' (2)
   36    25          -0.6183514494         -16.8261983658       E       A'  (1)
   37    26          -0.6016714179         -16.3723116322      A1       A'  (1)
   38    27          -0.4919871486         -13.3876509271       E       A'  (1)
   39   196          -0.4919871481         -13.3876509159       E       A'' (2)
   40    28          -0.3367910914          -9.1645515129       E       A'  (1)
   41   197          -0.3367910892          -9.1645514548       E       A'' (2)
  +++++++++++++++++++++++++++++++++++++++++++++++++++++++++++++++++++++++++++++
   42    29           0.0210532651           0.5728884676      A1       A'  (1)
   43    30           0.0754418321           2.0528766182      A1       A'  (1)
   44    31           0.1019206296           2.7734013281       E       A'  (1)
   45   198           0.1019206297           2.7734013308       E       A'' (2)
   46    32           0.1097167428           2.9855443537       E       A'  (1)
   47   199           0.1097167430           2.9855443581       E       A'' (2)
   48    33           0.1237825231           3.3682936933      A1       A'  (1)
   49   200           0.1336097797           3.6357069419      A2       A'' (2)
   50    34           0.1478772573           4.0239447439       E       A'  (1)
   51   201           0.1478772583           4.0239447712       E       A'' (2)
   52   202           0.1867655840           5.0821499134       E       A'' (2)
   53    35           0.1867655843           5.0821499203       E       A'  (1)
   54    36           0.2446351392           6.6568605671      A1       A'  (1)
   55    37           0.2781887178           7.5698998577      A1       A'  (1)
   56   203           0.3321523530           9.0383250250       E       A'' (2)
   57    38           0.3321523532           9.0383250297       E       A'  (1)
   58    39           0.3540017947           9.6328785592      A1       A'  (1)
   59    40           0.3691949483          10.0463052876      A1       A'  (1)
   60    41           0.3743176008          10.1856997474       E       A'  (1)
   61   204           0.3743176008          10.1856997496       E       A'' (2)
   62    42           0.4356207957          11.8538444879      A1       A'  (1)
   63   205           0.4434748242          12.0675634701       E       A'' (2)
   64    43           0.4434748245          12.0675634772       E       A'  (1)
   65    44           0.4825139728          13.1298727086       E       A'  (1)
   66   206           0.4825139730          13.1298727145       E       A'' (2)
   67    45           0.5201255804          14.1533365858       E       A'  (1)
   68   207           0.5201255805          14.1533365862       E       A'' (2)
   69    46           0.5262407883          14.3197398507      A1       A'  (1)
   70   208           0.5286238552          14.3845863996      A2       A'' (2)
   71    47           0.5624374114          15.3047000393       E       A'  (1)
   72   209           0.5624374115          15.3047000431       E       A'' (2)
   73    48           0.5639255910          15.3451954668      A1       A'  (1)
   74   210           0.6395724277          17.4036505426       E       A'' (2)
   75    49           0.6395724283          17.4036505594       E       A'  (1)
   76    50           0.6592286701          17.9385240891      A1       A'  (1)
   77   211           0.6963192977          18.9478113787       E       A'' (2)
   78    51           0.6963192980          18.9478113859       E       A'  (1)
   79    52           0.7123049135          19.3828020978      A1       A'  (1)
   80    53           0.7232528105          19.6807095205      A1       A'  (1)
   81    54           0.7548088176          20.5393921303      A1       A'  (1)
   82   212           0.7622597421          20.7421420927       E       A'' (2)
   83    55           0.7622597423          20.7421420986       E       A'  (1)
   84   213           0.8111447839          22.0723717070       E       A'' (2)
   85    56           0.8111447840          22.0723717100       E       A'  (1)
   86   214           0.8193123799          22.2946232944      A2       A'' (2)
   87   215           0.8558782631          23.2896315619       E       A'' (2)
   88    57           0.8558782632          23.2896315624       E       A'  (1)
   89    58           0.8648195397          23.5329360667      A1       A'  (1)
   90   216           0.8817946294          23.9948517418       E       A'' (2)
   91    59           0.8817946295          23.9948517433       E       A'  (1)
   92   217           0.8991355120          24.4667211447      A2       A'' (2)
   93    60           0.9197674915          25.0281458508      A1       A'  (1)
   94    61           0.9457333536          25.7347128779       E       A'  (1)
   95   218           0.9457333537          25.7347128817       E       A'' (2)
   96   219           0.9622601561          26.1844300371       E       A'' (2)
   97    62           0.9622601562          26.1844300416       E       A'  (1)
   98   220           1.0266408943          27.9363189897       E       A'' (2)
   99    63           1.0266408943          27.9363189902       E       A'  (1)
  100    64           1.0314268545          28.0665515873      A1       A'  (1)
  101   221           1.0900293090          29.6612054453       E       A'' (2)
  102    65           1.0900293097          29.6612054634       E       A'  (1)
  103   222           1.1106467023          30.2222332395       E       A'' (2)
  104    66           1.1106467027          30.2222332478       E       A'  (1)
  105    67           1.1291414938          30.7255021009      A1       A'  (1)
  106   223           1.1497956880          31.2875312985      A2       A'' (2)
  107    68           1.2260755561          33.3632120346      A1       A'  (1)
  108   224           1.2306700702          33.4882351198       E       A'' (2)
  109    69           1.2306700715          33.4882351544       E       A'  (1)
  110    70           1.3059950507          35.5379320439      A1       A'  (1)
  111   225           1.3572851384          36.9336062843       E       A'' (2)
  112    71           1.3572851385          36.9336062870       E       A'  (1)
  113    72           1.4086657928          38.3317449712      A1       A'  (1)
  114   226           1.4600387982          39.7296755161       E       A'' (2)
  115    73           1.4600387984          39.7296755230       E       A'  (1)
  116    74           1.4676317133          39.9362892406       E       A'  (1)
  117   227           1.4676317133          39.9362892419       E       A'' (2)
  118    75           1.4835263381          40.3688039709      A1       A'  (1)
  119    76           1.4956021018          40.6974022046      A1       A'  (1)
  120    77           1.6348459777          44.4864206991       E       A'  (1)
  121   228           1.6348459778          44.4864207020       E       A'' (2)
  122    78           1.7446926970          47.4755018940      A1       A'  (1)
  123   229           1.7727487203          48.2389450997      A2       A'' (2)
  124   230           1.7822842075          48.4984188973       E       A'' (2)
  125    79           1.7822842076          48.4984188996       E       A'  (1)
  126    80           1.8374736314          50.0001994702       E       A'  (1)
  127   231           1.8374736316          50.0001994771       E       A'' (2)
  128   232           1.8618665585          50.6639647616       E       A'' (2)
  129    81           1.8618665587          50.6639647672       E       A'  (1)
  130    82           1.8986350425          51.6644860787      A1       A'  (1)
  131    83           1.9091461155          51.9505069160       E       A'  (1)
  132   233           1.9091461157          51.9505069220       E       A'' (2)
  133   234           2.1658579408          58.9359908178      A2       A'' (2)
  134   235           2.1772963729          59.2472463782       E       A'' (2)
  135    84           2.1772963731          59.2472463841       E       A'  (1)
  136    85           2.2229869600          60.4905504630      A1       A'  (1)
  137   236           2.2330136452          60.7633904381       E       A'' (2)
  138    86           2.2330136454          60.7633904427       E       A'  (1)
  139    87           2.2523701045          61.2901064709      A1       A'  (1)
  140    88           2.3032220335          62.6738578080       E       A'  (1)
  141   237           2.3032220335          62.6738578082       E       A'' (2)
  142    89           2.3349451117          63.5370866517      A1       A'  (1)
  143   238           2.3513586550          63.9837218732       E       A'' (2)
  144    90           2.3513586551          63.9837218755       E       A'  (1)
  145   239           2.3928726061          65.1133739125      A2       A'' (2)
  146    91           2.4140625920          65.6899827436      A1       A'  (1)
  147    92           2.4355200259          66.2738692042       E       A'  (1)
  148   240           2.4355200260          66.2738692045       E       A'' (2)
  149   241           2.4684341165          67.1695071428       E       A'' (2)
  150    93           2.4684341168          67.1695071486       E       A'  (1)
  151    94           2.4725473749          67.2814345919      A1       A'  (1)
  152    95           2.4993066615          68.0095917991       E       A'  (1)
  153   242           2.4993066617          68.0095918048       E       A'' (2)
  154    96           2.5330592971          68.9280477076      A1       A'  (1)
  155   243           2.5603558693          69.6708252000       E       A'' (2)
  156    97           2.5603558694          69.6708252018       E       A'  (1)
  157   244           2.7294156144          74.2711747427       E       A'' (2)
  158    98           2.7294156145          74.2711747452       E       A'  (1)
  159    99           2.7306191991          74.3039259468      A1       A'  (1)
  160   245           2.7586199594          75.0658653705       E       A'' (2)
  161   100           2.7586199598          75.0658653804       E       A'  (1)
  162   246           2.7635547370          75.2001474945      A2       A'' (2)
  163   101           2.7936788892          76.0198673507      A1       A'  (1)
  164   247           2.8625751509          77.8946299415      A2       A'' (2)
  165   102           2.8956051581          78.7934221334       E       A'  (1)
  166   248           2.8956051584          78.7934221396       E       A'' (2)
  167   249           2.9159728803          79.3476560298      A2       A'' (2)
  168   103           2.9216417565          79.5019139931      A1       A'  (1)
  169   250           2.9252194828          79.5992688755       E       A'' (2)
  170   104           2.9252194832          79.5992688856       E       A'  (1)
  171   105           2.9389769268          79.9736279588      A1       A'  (1)
  172   251           2.9754115954          80.9650656939       E       A'' (2)
  173   106           2.9754115954          80.9650656963       E       A'  (1)
  174   107           3.0805580993          83.8262475272      A1       A'  (1)
  175   252           3.0878180094          84.0237997228       E       A'' (2)
  176   108           3.0878180095          84.0237997254       E       A'  (1)
  177   253           3.0939678432          84.1911452076      A2       A'' (2)
  178   254           3.1400156768          85.4441704635       E       A'' (2)
  179   109           3.1400156770          85.4441704677       E       A'  (1)
  180   110           3.1908965069          86.8287082394       E       A'  (1)
  181   255           3.1908965070          86.8287082425       E       A'' (2)
  182   111           3.2076878815          87.2856247711      A1       A'  (1)
  183   256           3.2449917707          88.3007152012      A2       A'' (2)
  184   112           3.2527571707          88.5120224794      A1       A'  (1)
  185   113           3.2837586234          89.3556148946       E       A'  (1)
  186   257           3.2837586237          89.3556149031       E       A'' (2)
  187   258           3.3364332975          90.7889656460       E       A'' (2)
  188   114           3.3364332978          90.7889656550       E       A'  (1)
  189   259           3.3587716516          91.3968231655       E       A'' (2)
  190   115           3.3587716517          91.3968231668       E       A'  (1)
  191   116           3.3654351983          91.5781474876       E       A'  (1)
  192   260           3.3654351985          91.5781474934       E       A'' (2)
  193   117           3.3804936312          91.9879082802      A1       A'  (1)
  194   261           3.4272260455          93.2595619236      A2       A'' (2)
  195   262           3.4318928090          93.3865510140       E       A'' (2)
  196   118           3.4318928091          93.3865510170       E       A'  (1)
  197   119           3.4625556624          94.2209296729      A1       A'  (1)
  198   263           3.5286098568          96.0183556832       E       A'' (2)
  199   120           3.5286098569          96.0183556863       E       A'  (1)
  200   121           3.6265932197          98.6846185367      A1       A'  (1)
  201   264           3.7166838986         101.1361105410       E       A'' (2)
  202   122           3.7166838999         101.1361105759       E       A'  (1)
  203   123           3.7985472994         103.3637269282      A1       A'  (1)
  204   265           3.8191012944         103.9230295660       E       A'' (2)
  205   124           3.8191012946         103.9230295710       E       A'  (1)
  206   125           3.8191180384         103.9234851940      A1       A'  (1)
  207   266           3.9083677608         106.3520936067       E       A'' (2)
  208   126           3.9083677610         106.3520936130       E       A'  (1)
  209   127           3.9300043276         106.9408545212       E       A'  (1)
  210   267           3.9300043277         106.9408545242       E       A'' (2)
  211   268           3.9981809152         108.7960337862      A2       A'' (2)
  212   128           4.0200447598         109.3909792438      A1       A'  (1)
  213   269           4.0649187340         110.6120621600       E       A'' (2)
  214   129           4.0649187340         110.6120621620       E       A'  (1)
  215   130           4.0940097028         111.4036676660      A1       A'  (1)
  216   270           4.5984212311         125.1294031548       E       A'' (2)
  217   131           4.5984212315         125.1294031648       E       A'  (1)
  218   132           4.6106588921         125.4624068392      A1       A'  (1)
  219   133           4.6133807846         125.5364732988       E       A'  (1)
  220   271           4.6133807849         125.5364733075       E       A'' (2)
  221   134           4.6455321907         126.4113575380       E       A'  (1)
  222   272           4.6455321908         126.4113575403       E       A'' (2)
  223   273           4.6606596783         126.8229974037      A2       A'' (2)
  224   135           4.7458839483         129.1420676880      A1       A'  (1)
  225   136           4.8589416371         132.2185238045      A1       A'  (1)
  226   274           4.8998033639         133.3304279191       E       A'' (2)
  227   137           4.8998033646         133.3304279392       E       A'  (1)
  228   275           4.9569633195         134.8858293862       E       A'' (2)
  229   138           4.9569633197         134.8858293916       E       A'  (1)
  230   139           4.9958971522         135.9452728342      A1       A'  (1)
  231   140           5.1778157856         140.8955305165      A1       A'  (1)
  232   141           5.4640956810         148.6856025099       E       A'  (1)
  233   276           5.4640956811         148.6856025137       E       A'' (2)
  234   277           5.5215062501         150.2478235162      A2       A'' (2)
  235   142           5.5227519962         150.2817219917      A1       A'  (1)
  236   278           5.5237973356         150.3101671231      A2       A'' (2)
  237   143           5.5239913156         150.3154455875       E       A'  (1)
  238   279           5.5239913159         150.3154455952       E       A'' (2)
  239   144           5.5247174153         150.3352037657      A1       A'  (1)
  240   280           5.5247481245         150.3360394043       E       A'' (2)
  241   145           5.5247481248         150.3360394119       E       A'  (1)
  242   281           5.8420250794         158.9695842682       E       A'' (2)
  243   146           5.8420250794         158.9695842691       E       A'  (1)
  244   282           5.8891456112         160.2517991242      A2       A'' (2)
  245   147           5.8943836744         160.3943340717      A1       A'  (1)
  246   283           5.9054890641         160.6965270877       E       A'' (2)
  247   148           5.9054890644         160.6965270950       E       A'  (1)
  248   149           5.9211436238         161.1225093126       E       A'  (1)
  249   284           5.9211436242         161.1225093233       E       A'' (2)
  250   150           6.0397288075         164.3493762125      A1       A'  (1)
  251   151           6.0737470565         165.2750598289       E       A'  (1)
  252   285           6.0737470566         165.2750598328       E       A'' (2)
  253   286           6.7372262274         183.3292459265       E       A'' (2)
  254   152           6.7372262276         183.3292459325       E       A'  (1)
  255   153           6.7486937850         183.6412940317      A1       A'  (1)
  256   287           6.7497856277         183.6710045836       E       A'' (2)
  257   154           6.7497856279         183.6710045882       E       A'  (1)
  258   288           6.7500538520         183.6783033364      A2       A'' (2)
  259   155           6.7574211659         183.8787781419       E       A'  (1)
  260   289           6.7574211664         183.8787781532       E       A'' (2)
  261   290           6.7653905799         184.0956369207       E       A'' (2)
  262   156           6.7653905801         184.0956369270       E       A'  (1)
  263   157           6.7656016841         184.1013813582      A1       A'  (1)
  264   291           6.7830003269         184.5748224975      A2       A'' (2)
  265   158           6.8015752389         185.0802715502       E       A'  (1)
  266   292           6.8015752393         185.0802715605       E       A'' (2)
  267   293           6.8534042318         186.4906101480       E       A'' (2)
  268   159           6.8534042320         186.4906101534       E       A'  (1)
  269   160           6.9062318637         187.9281230930      A1       A'  (1)
  270   161           6.9450039779         188.9831659566      A1       A'  (1)
  271   294           6.9827928058         190.0114522409       E       A'' (2)
  272   162           6.9827928061         190.0114522502       E       A'  (1)
  273   295           7.2634064964         197.6473389628       E       A'' (2)
[...]
         1                S              0.04229739
         1                S              0.00290118
         1                S              0.04599710
         1                P              2.00000917
         1                P              1.98779156
         1                P              0.00077279
         1                P              0.17957575
         1                P             -0.07165587
         1                P              0.00972378
         1                P              2.00000485
         1                P              1.98091437
         1                P              0.00004373
         1                P              0.05267467
         1                P              0.50203061
         1                P             -0.12675289
         1                P              2.00000485
         1                P              1.98091437
         1                P              0.00004373
         1                P              0.05267467
         1                P              0.50203061
         1                P             -0.12675289
         1                D              0.36734833
         1                D              0.01459175
         1                D              0.00142456
         1                D             -0.00023043
         1                D              1.59277757
         1                D              0.03668869
         1                D              0.00372195
         1                D              0.01634452
         1                D              1.59277757
         1                D              0.03668869
         1                D              0.00372195
         1                D              0.01634452
         1                D              0.80527048
         1                D              0.02524230
         1                D              0.00263163
         1                D              0.01497266
         1                D              1.42686679
         1                D              0.04318873
         1                D              0.00455098
         1                D              0.03006053
         1                D              0.80527048
         1                D              0.02524230
         1                D              0.00263163
         1                D              0.01497266
         1                F              0.00021404
         1                F              0.00141974
         1                F              0.00055766
         1                F              0.00251844
         1                F              0.00055766
         1                F              0.00251844
         1                F              0.00062367
         1                F              0.00262550
         1                F              0.00092628
         1                F              0.00312140
         1                F              0.00062367
         1                F              0.00262550
         1                F              0.00032515
         1                F              0.00157231
         1                F              0.00067911
         1                F              0.00263867
         1                F              0.00069663
         1                F              0.00345772
         1                F              0.00031931
         1                F              0.00129929
         1                G              0.00002890
         1                G              0.00006718
         1                G              0.00006718
         1                G              0.00009839
         1                G              0.00011008
         1                G              0.00009839
         1                G              0.00007532
         1                G              0.00012301
         1                G              0.00012517
         1                G              0.00007460
         1                G              0.00003264
         1                G              0.00008070
         1                G              0.00011304
         1                G              0.00008475
         1                G              0.00003061
         2                S              1.99746450
         2                S              0.00349199
         2                S              1.53714395
         2                S             -0.24680613
         2                P             -0.10099025
         2                P              1.13809032
         2                P             -0.08360771
         2                P             -0.01296974
         2                P              0.80944803
         2                P             -0.10683470
         2                P             -0.01296974
         2                P              0.80944803
         2                P             -0.10683470
         2                D              0.01046478
         2                D              0.00932835
         2                D              0.01555787
         2                D              0.05983873
         2                D              0.01555787
         2                D              0.05983873
         2                D              0.00340704
         2                D              0.00533860
         2                D              0.00158169
         2                D              0.00601303
         2                D              0.00340704
         2                D              0.00533860
         2                F              0.00235729
         2                F              0.00547631
         2                F              0.00547631
         2                F              0.00228070
         2                F              0.00102547
         2                F              0.00228070
         2                F              0.00109591
         2                F              0.00053760
         2                F              0.00054956
         2                F              0.00109192
         3                S              1.99765145
         5                S              1.99765145
         3                S              0.00302251
         5                S              0.00302251
         3                S              1.59154186
         5                S              1.59154186
         3                S             -0.18519111
         5                S             -0.18519111
         3                P             -0.01709926
         5                P             -0.01709926
         3                P              0.74723639
         5                P              0.74723639
         3                P             -0.09298797
         5                P             -0.09298797
         3                P             -0.03887764
         5                P             -0.03887764
         3                P              0.90215203
         5                P              0.90215203
         3                P             -0.10358834
         5                P             -0.10358834
         3                P             -0.08537719
         5                P             -0.08537719
         3                P              1.07997808
         5                P              1.07997808
         3                P             -0.09132696
         5                P             -0.09132696
         3                D              0.00365610
         5                D              0.00365610
         3                D              0.00488707
         5                D              0.00488707
         3                D              0.00455408
         5                D              0.00455408
         3                D              0.01497341
         5                D              0.01497341
         3                D              0.01058539
         5                D              0.01058539
         3                D              0.03632872
         5                D              0.03632872
         3                D              0.00629997
         5                D              0.00629997
         3                D              0.02072098
         5                D              0.02072098
         3                D              0.01429463
         5                D              0.01429463
         3                D              0.02254928
         5                D              0.02254928
         3                D              0.01036737
         5                D              0.01036737
         3                D              0.02373932
         5                D              0.02373932
         3                F              0.00088058
         5                F              0.00088058
         3                F              0.00080340
         5                F              0.00080340
         3                F              0.00158626
         5                F              0.00158626
         3                F              0.00040998
         5                F              0.00040998
         3                F              0.00323061
         5                F              0.00323061
         3                F              0.00252433
         5                F              0.00252433
         3                F              0.00067786
         5                F              0.00067786
         3                F              0.00423849
         5                F              0.00423849
         3                F              0.00339317
         5                F              0.00339317
         3                F              0.00200007
         5                F              0.00200007
         4                S              1.99765145
         4                S              0.00302251
         4                S              1.59154186
         4                S             -0.18519111
         4                P             -0.01709926
         4                P              0.74723639
         4                P             -0.09298797
         4                P             -0.10862696
         4                P              1.16889110
         4                P             -0.08519627
         4                P             -0.01562787
         4                P              0.81323901
         4                P             -0.10971904
         4                D              0.00365610
         4                D              0.00488707
         4                D              0.01360105
         4                D              0.04700637
         4                D              0.00153842
         4                D              0.00429575
         4                D              0.01199258
         4                D              0.01064788
         4                D              0.01511162
         4                D              0.05175051
         4                D              0.00385777
         4                D              0.00461119
         4                F              0.00088058
         4                F              0.00197769
         4                F              0.00041197
         4                F              0.00479438
         4                F              0.00080487
         4                F              0.00056567
         4                F              0.00221901
         4                F              0.00489154
         4                F              0.00214560
         4                F              0.00105345
         6                S              1.99649617
         6                S              0.00440315
         6                S              1.83865866
         6                S             -0.09139596
         6                P             -0.06205314
         6                P              1.54370663
         6                P             -0.10995872
         6                P             -0.01262151
         6                P              1.49817418
         6                P             -0.03545483
         6                P             -0.01262151
         6                P              1.49817418
         6                P             -0.03545483
         6                D              0.00300609
         6                D              0.00870915
         6                D              0.00311423
         6                D              0.01374869
         6                D              0.00311423
         6                D              0.01374869
         6                D              0.00160601
         6                D              0.00420499
         6                D              0.00170899
         6                D              0.00405540
         6                D              0.00160601
         6                D              0.00420499
         6                F              0.00053787
         6                F              0.00095079
         6                F              0.00095079
         6                F              0.00062158
         6                F              0.00043637
         6                F              0.00062158
         6                F              0.00026766
         6                F              0.00032757
         6                F              0.00032758
         6                F              0.00026765
         7                S              1.99653564
         9                S              1.99653564
         7                S              0.00457426
         9                S              0.00457426
         7                S              1.83931692
         9                S              1.83931692
         7                S             -0.10111530
         9                S             -0.10111530
         7                P             -0.01065605
         9                P             -0.01065605
         7                P              1.44635124
         9                P              1.44635124
         7                P             -0.04101433
         9                P             -0.04101433
         7                P             -0.02511993
         9                P             -0.02511993
         7                P              1.52897365
         9                P              1.52897365
         7                P             -0.05401312
         9                P             -0.05401312
         7                P             -0.05095133
         9                P             -0.05095133
         7                P              1.55223032
         9                P              1.55223032
         7                P             -0.09419834
         9                P             -0.09419834
         7                D              0.00158521
         9                D              0.00158521
         7                D              0.00409935
         9                D              0.00409935
         7                D              0.00205120
         9                D              0.00205120
         7                D              0.00655901
         9                D              0.00655901
         7                D              0.00275537
         9                D              0.00275537
         7                D              0.01159438
         9                D              0.01159438
         7                D              0.00169294
         9                D              0.00169294
         7                D              0.00636750
         9                D              0.00636750
         7                D              0.00364084
         9                D              0.00364084
         7                D              0.01121918
         9                D              0.01121918
         7                D              0.00238575
         9                D              0.00238575
         7                D              0.00848652
         9                D              0.00848652
         7                F              0.00025995
         9                F              0.00025995
         7                F              0.00038841
         9                F              0.00038841
         7                F              0.00053194
         9                F              0.00053194
         7                F              0.00031590
         9                F              0.00031590
         7                F              0.00078718
         9                F              0.00078718
         7                F              0.00062913
         9                F              0.00062913
         7                F              0.00024231
         9                F              0.00024231
         7                F              0.00086132
         9                F              0.00086132
         7                F              0.00086044
         9                F              0.00086044
         7                F              0.00042362
         9                F              0.00042362
         8                S              1.99653564
         8                S              0.00457426
         8                S              1.83931692
         8                S             -0.10111530
         8                P             -0.01065605
         8                P              1.44635124
         8                P             -0.04101433
         8                P             -0.06386703
         8                P              1.56385866
         8                P             -0.11429094
         8                P             -0.01220423
         8                P              1.51734531
         8                P             -0.03392051
         8                D              0.00158521
         8                D              0.00409935
         8                D              0.00310745
         8                D              0.01411207
         8                D              0.00169912
         8                D              0.00404132
         8                D              0.00299822
         8                D              0.00835716
         8                D              0.00310871
         8                D              0.01359692
         8                D              0.00161259
         8                D              0.00411911
         8                F              0.00025995
         8                F              0.00060371
         8                F              0.00031664
         8                F              0.00095980
         8                F              0.00043907
         8                F              0.00033334
         8                F              0.00052846
         8                F              0.00095554
         8                F              0.00062812
         8                F              0.00027557
 -------------------------------------------------------
  Population analysis by atoms (atomic charges).
 -------------------------------------------------------
     Z-matrix
      Center          Function          Population
 -------------------------------------------------------
         1                              26.19443480
         2                               5.84191795
         3                               5.89983489
         5                               5.89983489
         4                               5.89983490
         6                               8.08818935
         7                               8.05865107
         9                               8.05865107
         8                               8.05865107
 -------------------------------------------------------
 @CHECKOUT-I, Total execution time (CPU/WALL):        7.19/       0.37 seconds.
--executable xprops finished with status     0 in        0.39 seconds (walltime).
  The final electronic energy is     -1715.403218201211530 a.u. 
  This computation required                       209325.44 seconds (walltime).
Attempting to clean /scratch/jearias... save is False. TIME: Sun 31 Aug 2025 09:32:29 AM PDT
Total of 209326 seconds elapsed for this process.
