 --invoking executable--
/opt/cfour/2.1/bin/xjoda


   *************************************************************************
         <<<     CCCCCC     CCCCCC   |||     CCCCCC     CCCCCC   >>>
       <<<      CCC        CCC       |||    CCC        CCC         >>>
      <<<      CCC        CCC        |||   CCC        CCC            >>>
    <<<        CCC        CCC        |||   CCC        CCC              >>>
      <<<      CCC        CCC        |||   CCC        CCC            >>>
       <<<      CCC        CCC       |||    CCC        CCC         >>>
         <<<     CCCCCC     CCCCCC   |||     CCCCCC     CCCCCC   >>>
   *************************************************************************

     ****************************************************************
     * CFOUR Coupled-Cluster techniques for Computational Chemistry *
     ****************************************************************


   Department of Chemistry                Institut fuer Physikalische Chemie
   University of Florida                  Universitaet Mainz
   Gainesville, FL 32611, USA             D-55099 Mainz, Germany

   Department of Chemistry                Fakultaet fuer Chemie und Biowiss.
   Johns Hopkins University               Karlsruher Institut fuer Technologie
   Baltimore, MD 21218, USA               D-76131 Karlsruhe, Germany

   Department of Chemistry                Department of Physical Chemistry
   Southern Methodist University          Eotvos Lorand University
   Dallas, TX 75275, USA                  H-1053 Budapest, Hungary


                       Version 2.1

                     node008                                           
                     Thu 29 May 2025 01:36:53 PM PDT                   
                     integer*8 version is running

********************************************************************************
*                          Input from ZMAT file                                *
********************************************************************************
Frequencies on FeCO5 (D3h), S0                                                  
Fe                                                                              
C 1 rFeCAx                                                                      
C 1 rFeCEq 2 a90                                                                
C 1 rFeCEq 3 a120 2 dn90                                                        
C 1 rFeCEq 3 a120 2 d90                                                         
C 1 rFeCAx 3 a90 4 dn90                                                         
O 1 rFeOAx 3 a90 4 d90                                                          
O 1 rFeOAx 3 a90 4 dn90                                                         
O 1 rFeOEq 2 a90 3 d0                                                           
O 1 rFeOEq 2 a90 4 d0                                                           
O 1 rFeOEq 2 a90 5 d0                                                           
                                                                                
rFeCAx =    1.829565855794663                                                   
rFeCEq =    1.830427937707052                                                   
rFeOAx =    2.983800083699976                                                   
rFeOEq =    2.987529988574558                                                   
a90    =   90.00000                                                             
a120   =  120.00000                                                             
dn90   =  -90.00000                                                             
d0     =    0.00000                                                             
d90    =   90.00000                                                             
                                                                                
*ACES2(CALC = CCSD(T)                                                           
      BASIS = SPECIAL                                                           
FROZEN_CORE = ON                                                                
        VIB = ANALYTIC                                                          
   SCF_CONV = 10                                                                
    CC_CONV = 8                                                                 
 LINEQ_CONV = 8                                                                 
   SCF_MAXCYC = 500                                                             
    CC_MAXCYC = 500                                                             
 LINEQ_MAXCYC = 500                                                             
  CPHF_MAXCYC = 500                                                             
       MEMORY = 32                                                              
     MEM_UNIT = GB)                                                             
                                                                                
Fe:cc-pVDZ                                                                      
C:cc-pVDZ                                                                       
C:cc-pVDZ                                                                       
C:cc-pVDZ                                                                       
C:cc-pVDZ                                                                       
C:cc-pVDZ                                                                       
O:cc-pVDZ                                                                       
O:cc-pVDZ                                                                       
O:cc-pVDZ                                                                       
O:cc-pVDZ                                                                       
O:cc-pVDZ                                                                       
                                                                                
********************************************************************************
    -------------------------------------------------------------------
                    CFOUR Control Parameters 
    -------------------------------------------------------------------
        External           Internal           Value            Units
          Name               Name
    -------------------------------------------------------------------
       ABCDTYPE             IABCDT         STANDARD    [  0]    ***   
       ANHARMONIC           IANHAR         OFF         [  0]    ***   
       ANH_ALGORIT          IANALG         STANDARD    [  0]    ***   
       ANH_DERIVAT          IANDER         SECOND      [  1]    ***   
       ANH_MODE             ANHMOD         VIBRATION   [  0]    ***   
       ANH_STEPSIZ          ICUBST             50000          x 10-6  
       ANH_SYMMETR          IANHSM         ABELIAN     [  0]    ***   
       AO_LADDERS           IAOLAD         SINGLEPASS  [  1]    ***   
       AV_SCF               IAVSCF         OFF         [  0]    ***   
       BASIS                IBASIS         SPECIAL     [  0]    ***   
       BOTHVECTORS          BOTHVC         OFF         [  0]    ***   
       BOX_POTENT           IPIAB          OFF         [  0]    ***   
       BREIT                IBREIT         OFF         [  0]    ***   
       BRUCK_CONV           IBRTOL          10D-  4             ***   
       BRUECKNER            IBRKNR         OFF         [  0]    ***   
       BUFFERSIZE           IBUFFS              4096            ***   
       CACHE_RECS           ICHREC             10               ***   
       CALCLEVEL            ICLLVL         CCSD(T)     [ 22]    ***   
       CCORBOPT             ICCORB         OFF         [  0]  x 0.01  
       CC_CONV              ICCCNV          10D-  8             ***   
       CC_EXPORDER          ICCEOR              5               ***   
       CC_EXTRAPOL          ICCEXT         DIIS        [  1]    ***   
       CC_GUESS             ICCGES         MP2         [  0]    ***   
       CC_MAXCYC            ICCCYC            500              cycles 
       CC_PROGRAM           ICCPRO         VCC         [  0]    ***   
       CHARGE               ICHRGE              0               ***   
       CHOLESKY             ICHOLE         OFF         [  0]    ***   
       CIS_CONV             ICISTL              5               ***   
       COMM_SIZE            IPSIZE            ***               ***   
       CONSTANT             ICONST         OLD         [  1]    ***   
       CONTINUUM            ICONTU         NONE        [  0]    ***   
       CONTRACTION          ICNTYP         GENERAL     [  1]    ***   
       COORDINATES          ICOORD         INTERNAL    [  0]    ***   
       CPHF_CONVER          ICPHFT          10D- 16             ***   
       CPHF_MAXCYC          ICPHFC            500              cycles 
       CUBIC                ICUBIC         OFF         [  0]    ***   
       CURVILINEAR          ICURVY         OFF         [  0]    ***   
       DBOC                 IDBOC          OFF         [  0]    ***   
       DCT                  IDCT           OFF         [  0]    ***   
       DERIV_LEV            IDRLVL         SECOND      [  2]    ***   
       DEVMEM_SIZE          IDVMEM         *********           MByte  
       DIAG_MRCC            IEOMST          10D-  0             ***   
       DIFF_TYPE            IDIFTY         RELAXED     [  0]    ***   
       DIRECT               IDIRCT         OFF         [  0]    ***   
       DROPMO               IDRPMO      NONE         
       ECP                  IECP           OFF         [  0]    ***   
       EIGENVECTOR          IVEC                1               ***   
       EL_ANHARM            IELANH         OFF         [  0]    ***   
       EOMFOLLOW            IEOMSR         ENERGY      [  0]    ***   
       EOMIP                IEOMIP         OFF         [  0]    ***   
       EOMLEVEL             HBARFM         SAME        [  0]    ***   
       EOM_MRCC             IMRCCE         NEW         [  1]    ***   
       EOM_NONIT            EOMNON         OFF         [  0]    ***   
       EOM_NSING            IEOMSI          10D-  0             ***   
       EOM_NSTATES          IMRCCD         DAVIDSON    [  0]    ***   
       EOM_NTRIP            IEOMTR          10D-  0             ***   
       EOM_ORDER            IEXORD         ENERGY      [  0]    ***   
       EOM_PROPSTA          IEOMST              0               ***   
       ESTATE_CONV          IEXTOL          10D-  5             ***   
       ESTATE_DIAG          IEXDIG         ITERATIVE   [  0]    ***   
       ESTATE_LOCK          IESLOC         ON          [  1]    ***   
       ESTATE_MAXC          IEXMXC             40               ***   
       ESTATE_PROP          IEXPRP         OFF         [  0]    ***   
       EVAL_HESS            IRECAL              0            # of cyc.
       EXCITATION           IEXCIT              0               ***   
       EXCITE               IEXCIT         NONE        [  0]    ***   
       EXTERN_POT           IEXPOT         OFF         [  0]    ***   
       FCGRADNEW            IFCGNW         OFF         [  0]    ***   
       FC_FIELD             IFINFC              0             x 10-6  
       FD_CALTYPE           IFDCAL         GRADONLY    [  0]    ***   
       FD_PROJECT           IFDPRJ         OFF         [  1]    ***   
       FD_STEPSIZE          IDISFD              0            10-4 bohr
       FD_USEGROUP          IFDGRP         FULL        [  0]    ***   
       FILE_RECSIZ          IFLREC              4096           words  
       FINITE_PERT          IFIPER              0             x 10-6  
       FIXGEOM              IFIXGM         OFF         [  0]    ***   
       FOCK                 IFOCK          AO          [  1]    ***   
       FREQ_ALGORI          IVIALG         STANDARD    [  0]    ***   
       FROZEN_CORE          IFROCO         ON          [  1]    ***   
       GAMMA_ABCD           IGABCD         STORE       [  0]    ***   
       GAMMA_ABCI           IGABCI         STORE       [  0]    ***   
       GENBAS_1             IGNBS1              0               ***   
       GENBAS_2             IGNBS2              0               ***   
       GENBAS_3             IGNBS3              0               ***   
       GENBAS_4             IGNBS4              0               ***   
       GEO_CONV             ICONTL              5              H/bohr 
       GEO_MAXCYC           IOPTCY             50               ***   
       GEO_MAXSTEP          IMXSTP            300            millibohr
       GEO_METHOD           INR            SINGLE_POINT[  5]    ***   
       GIAO                 IGIAO          OFF         [  1]    ***   
       GIMIC                IGIMIC         OFF         [  0]    ***   
       GRID                 IGRID          OFF         [  0]    ***   
       GRID_ALGO            IGALGO         SERIAL      [  0]    ***   
       GUESS                IGUESS         MOREAD      [  0]    ***   
       HBAR                 IHBAR          OFF         [  0]    ***   
       HESS_TYPE            IHESTP         SCF         [  0]    ***   
       HF2_FILE             IHF2Fl         USE         [  1]    ***   
       HFSTABILITY          ISTABL         OFF         [  0]    ***   
       INCORE               INCORE         OFF         [  0]    ***   
       INPUT_MRCC           IMRCC          ON          [  1]    ***   
       INTEGRALS            INTTYP         VMOL        [  1]    ***   
       JODA_PRINT           IJPRNT              0               ***   
       KEYWORD_OUT          IDMPKW         NO          [  0]    ***   
       LINDEP_TOL           ILINDP              8               ***   
       LINEQ_CONV           IZTACN          10D-  8           cycles  
       LINEQ_EXPOR          ILMAXD              5               ***   
       LINEQ_MAXCY          ILMAXC            500               ***   
       LINEQ_TYPE           ILTYPE         DIIS        [  1]    ***   
       LOCK_ORBOCC          ILOCOC         OFF         [  0]    ***   
       MEMORY_SIZE          IMEMSZ         *********           words  
       MEM_UNIT             IMEMU          GB          [  3]    ***   
       MRCC                 IMRCCC         OFF         [  0]    ***   
       MULTIPLICTY          IMULTP              1               ***   
       NACOUPLING           IVCOUP         OFF         [  0]    ***   
       NEGEVAL              IDIE           ABORT       [  0]    ***   
       NEWNORM              INEWNO         OFF         [  0]    ***   
       NON-HF               INONHF         OFF         [  0]    ***   
       NTOP_TAMP            ITOPT2             15               ***   
       NUC_MODEL            INUCMO         POINT       [  0]    ***   
       OCCUPATION           IOCCU   ESTIMATED BY SCF 
       OPEN-SHELL           IOPEN          SPIN-ORBITAL[  0]    ***   
       OPTVIB               IOPTVB         OFF         [  0]    ***   
       ORBITALS             IORBTP         STANDARD    [  0]    ***   
       PARALLEL             IPARAL         ON          [  1]    ***   
       PARA_INT             IPINTS         ON          [  1]    ***   
       PARA_PRINT           IPPRIN              0               ***   
       PERT_ORB             IPTORB         CANONICAL   [  1]    ***   
       POINTS               IGRDFD              0               ***   
       PRINT                IPRNT               0               ***   
       PROPS                IPROPS         OFF         [  0]    ***   
       PROP_INTEGR          IINTYP         INTERNAL    [  0]    ***   
       PSI                  IPSI           OFF         [  0]    ***   
       QC_ALG               IQCALG         FLM         [  0]    ***   
       QC_LINALG            IQCLIN         TRIDIAG     [  2]    ***   
       QC_MAXCYC            IQCMAX          10D-100           cycles  
       QC_MAXSCFCY          IQCMSC          10D- 15           cycles  
       QC_RTRUST            IQCRTR          10D-  0           x 10-3  
       QC_SKIPSCF           IQCSKI         OFF         [  0]    ***   
       QC_START             IQCSTA          10D-  1             ***   
       QRHFGUESS            IQGUES         OFF         [  0]    ***   
       QUARTIC              IQUART         OFF         [  0]    ***   
       RAMAN_INT            IRAMIN         OFF         [  0]    ***   
       RAMAN_ORB            IRAMRE         UNRELAXED   [  0]    ***   
       RDO                  IRDOFM         ON          [  1]    ***   
       REDUCE_REPR          REDREP         Ir          [  0]    ***   
       REFERENCE            IREFNC         RHF         [  0]    ***   
       RELATIVIST           IRELAT         OFF         [  0]    ***   
       RELAX_DENS           IRDENS         ON          [  1]    ***   
       RESET_FLAGS          IRESET         OFF         [  0]    ***   
       RESTART_CC           ICCRES         OFF         [  0]    ***   
       ROT_EVEC             ROTVEC              0               ***   
       SAVE_INTS            ISVINT         OFF         [  0]    ***   
       SCALE_ON             ISTCRT              0               ***   
       SCF_CONV             ISCFCV          10D- 10             ***   
       SCF_DAMPING          IDAMP               0             x 10-3  
       SCF_EXPORDE          IRPPOR              6               ***   
       SCF_EXPSTAR          IRPPLS              8               ***   
       SCF_EXTRAPO          IRPP           ON          [  1]    ***   
       SCF_MAXCYC           ISCFCY            500              cycles 
       SCF_NOSTOP           ISCFST         OFF         [  0]    ***   
       SCF_PRINT            ISCFPR              0               ***   
       SCF_PROG             ISCFPR         SCF         [  0]    ***   
       SD_FIELD             IFINSD              0             x 10-6  
       SOPERT               IPERSO         OFF         [  0]    ***   
       SPHERICAL            IDFGHI         ON          [  1]    ***   
       SPINORBIT            ISOCAL         OFF         [  0]    ***   
       SPINROTATIO          ISRCON         OFF         [  0]    ***   
       SPIN_FLIP            ISPFLP         OFF         [  0]    ***   
       SPIN_ORBIT           ISPORB         OFF         [  0]    ***   
       SPIN_SCAL            ISCSMP         OFF         [  0]    ***   
       STEEPSCALE           ISTPSC              1000          x 10-3  
       SUBGROUP             ISUBGP         DEFAULT     [  0]    ***   
       SUBGRPAXIS           ISBXYZ         X           [  0]    ***   
       SYMMETRY             ISYM           ON          [  0]    ***   
       SYM_CHECK            ISYMCK         OVERRIDE    [  1]    ***   
       T3_EXTRAPOL          IT3EXT         OFF         [  0]    ***   
       T4_EXTRAPOL          IT4EXP         OFF         [  0]    ***   
       TAMP_SUM             IEVERY              5               ***   
       TESTSUITE            ITESTS         OFF         [  0]    ***   
       THERMOCH             ITHERM         ON          [  1]    ***   
       TOL_CHOLESK          ITOLCH          10D-  4             ***   
       TRANGRAD             IRESRM         OFF         [  0]    ***   
       TRANS_INV            ITRAIN         USE         [  0]    ***   
       TREAT_PERT           ITREAT         SIMULTANEOUS[  0]    ***   
       TRIP_ALGORI          ITRALG         NORMAL      [  0]    ***   
       UIJ_THRESHO          IUIJTH              1               ***   
       UNITS                IUNITS         ANGSTROM    [  0]    ***   
       UNOS                 IUNOS          OFF         [  0]    ***   
       UPDATE_HESS          IHUPDT         ON          [  1]    ***   
       VIBPHASE             ISETPH         STANDARD    [  0]    ***   
       VIBRATION            IVIB           ANALYTIC    [  1]    ***   
       VIB_ALGORIT          IGEALG         STANDARD    [  0]    ***   
       VNATORB              IVNORB         OFF         [  0]    ***   
       VTRAN                IVTRAN         FULL/PARTIAL[  0]    ***   
       XFIELD               IXEFLD              0             x 10-6  
       XFORM_TOL            IXFTOL          10D- 11             ***   
       YFIELD               IYEFLD              0             x 10-6  
       ZFIELD               IZEFLD              0             x 10-6  
       ZSCALE_EXP           IZEXPS         OFF         [  0]    ***   
    -------------------------------------------------------------------
  11 entries found in Z-matrix 
   Job Title : Frequencies on FeCO5 (D3h), S0                                                  
   There are  9 unique internal coordinates.
   Of these,  0 will be optimized.
   User supplied Z-matrix: 
--------------------------------------------------------------------------------
       SYMBOL    BOND      LENGTH    ANGLE     ANGLE     DIHED     ANGLE
                  TO      (ANGST)    WRT      (DEG)      WRT      (DEG)
--------------------------------------------------------------------------------
        Fe   
        C          1         rFeCA
        C          1         rFeCE      2        a90  
        C          1         rFeCE      3        a120       2        dn90 
        C          1         rFeCE      3        a120       2        d90  
        C          1         rFeCA      3        a90        4        dn90 
        O          1         rFeOA      3        a90        4        d90  
        O          1         rFeOA      3        a90        4        dn90 
        O          1         rFeOE      2        a90        3        d0   
        O          1         rFeOE      2        a90        4        d0   
        O          1         rFeOE      2        a90        5        d0   
                  *Initial values for internal coordinates* 
                      Name             Value
                        rFeCA           1.8295658558
                        rFeCE           1.8304279377
                        a90            90.0000000000
                        a120          120.0000000000
                        dn90          -90.0000000000
                        d90            90.0000000000
                        rFeOA           2.9838000837
                        rFeOE           2.9875299886
                        d0              0.0000000000
--------------------------------------------------------------------------------
  filter applied 
  filter applied 
   Rotational constants (in cm-1): 
          0.0263568807             0.0263568807             0.0307118455
   Rotational constants (in MHz): 
        790.1595147912           790.1595147912           920.7180943059
********************************************************************************
   The full molecular point group is D3h .
   The largest Abelian subgroup of the full molecular point group is C2v .
   The computational point group is C2v .
********************************************************************************
--------------------------------------------------------------------------------
   Analysis of internal coordinates specified by Z-matrix 
--------------------------------------------------------------------------------
   *The nuclear repulsion energy is  794.324169968254409 a.u.
   *There are   4 degrees of freedom within the tot. symm. molecular subspace.
   *Z-matrix requests optimization of   0 coordinates.
   *The optimization is constrained.
   *The following   4 parameters can have non-zero 
    derivatives within the totally symmetric subspace:
             rFeCE[ 4]  rFeCA[ 1]  rFeOE[25]  rFeOA[13]
   *The following   0 parameters are to be optimized:

   *The following coordinates must be varied in an  unconstrained optimization.
             rFeCE[ 4]  rFeCA[ 1]  rFeOE[25]  rFeOA[13]
--------------------------------------------------------------------------------


 ----------------------------------------------------------------
         Coordinates used in calculation (QCOMP) 
 ----------------------------------------------------------------
 Z-matrix   Atomic            Coordinates (in bohr)
  Symbol    Number           X              Y              Z
 ----------------------------------------------------------------
     FE       26         0.00000000     0.00000000     0.00000000
     C         6         0.00000000    -3.45737912     0.00000000
     C         6        -2.99558899     0.00000000    -1.72950411
     C         6        -0.00000000     0.00000000     3.45900822
     C         6         2.99558899    -0.00000000    -1.72950411
     C         6        -0.00000000     3.45737912     0.00000000
     O         8        -0.00000000    -5.63856615     0.00000000
     O         8        -0.00000000     5.63856615     0.00000000
     O         8        -4.88924571    -0.00000000    -2.82280733
     O         8        -0.00000000    -0.00000000     5.64561465
     O         8         4.88924571    -0.00000000    -2.82280733
 ----------------------------------------------------------------

   Interatomic distance matrix (Angstroms) 

                 FE            C             C             C             C    
                [ 1]        [ 2]        [ 3]        [ 4]        [ 5]
  FE   [ 1]     0.00000
  C    [ 2]     1.82957     0.00000
  C    [ 3]     1.83043     2.58801     0.00000
  C    [ 4]     1.83043     2.58801     3.17039     0.00000
  C    [ 5]     1.83043     2.58801     3.17039     3.17039     0.00000
  C    [ 6]     1.82957     3.65913     2.58801     2.58801     2.58801
  O    [ 7]     2.98380     1.15423     3.50050     3.50050     3.50050
  O    [ 8]     2.98380     4.81337     3.50050     3.50050     3.50050
  O    [ 9]     2.98753     3.50323     1.15710     4.21239     4.21239
  O    [10]     2.98753     3.50323     4.21239     1.15710     4.21239
  O    [11]     2.98753     3.50323     4.21239     4.21239     1.15710

                 C             O             O             O             O    
                [ 6]        [ 7]        [ 8]        [ 9]        [10]
  C    [ 6]     0.00000
  O    [ 7]     4.81337     0.00000
  O    [ 8]     1.15423     5.96760     0.00000
  O    [ 9]     3.50323     4.22237     4.22237     0.00000
  O    [10]     3.50323     4.22237     4.22237     5.17455     0.00000
  O    [11]     3.50323     4.22237     4.22237     5.17455     5.17455

                 O    
                [11]
  O    [11]     0.00000
 rotcon2
   Rotational constants (in cm-1): 
          0.0263568807             0.0307118455             0.0263568807
   Rotational constants (in MHz): 
        790.1595147912           920.7180943059           790.1595147912
  ECPDATA file not present.   Using default ECPDATA. 
  There are  19 frozen-core orbitals.
  There are  183 basis functions.
 @CHECKOUT-I, Total execution time (CPU/WALL):        1.04/       0.49 seconds.
--executable xjoda finished with status     0 in        0.53 seconds (walltime).
 --invoking executable--
/opt/cfour/2.1/bin/xvmol
 SERIAL VERSION OF MOLECULE STARTED
********************************************************************************
                    INPUT FROM MOL FILE
********************************************************************************
INTGRL        1    0    1    0    0    0    0    0    0                         
         *** CFOUR Program System (Release V0.1) ***                            
Frequencies on FeCO5 (D3h), S0                                                  
    7    2 X  Y       0.10E-08              0    0                              
   9999.00      3.00                                                            
         26.00000000    1    4    1    1    1    1                              
FE#1   0.000000000000000   0.000000000000000   0.000000000000000                
   20    6                                                                      
   4316265.0000000000        8.0488029999999998E-006  -4.1559539999999997E-006  
   646342.40000000002        6.2583059999999998E-005  -3.2314010000000003E-005  
   147089.70000000001        3.2902389999999999E-004  -1.6995250000000000E-004  
   41661.519999999997        1.3873550000000001E-003  -7.1713690000000004E-004  
   13590.770000000000        5.0232560000000002E-003  -2.6036250000000000E-003  
   4905.7500000000000        1.6101399999999998E-002  -8.3991090000000001E-003  
   1912.7460000000001        4.5900339999999998E-002  -2.4341089999999999E-002  
   792.60429999999997       0.11361540000000001       -6.2519480000000002E-002  
   344.80650000000003       0.22838690000000000      -0.13659289999999999       
   155.89990000000000       0.32211590000000001      -0.23127070000000000       
   72.230909999999994       0.23836610000000000      -0.23837340000000001       
   32.725059999999999        7.4046669999999995E-002   3.1238370000000001E-002  
   15.667619999999999        9.2141970000000004E-002  0.50868179999999996      -
   7.5034830000000001        9.3397900000000006E-002  0.49876949999999998      -
   3.3122229999999999        1.5739650000000001E-002   9.0335520000000002E-002  
   1.5584709999999999       -4.1866819999999998E-004  -6.0053370000000003E-003  
  0.68391400000000002        5.3763179999999999E-005   2.3124539999999999E-004  
  0.14675700000000000       -3.8166539999999997E-005  -5.6436799999999999E-004  
   7.0583000000000007E-002   4.3196030000000000E-005   4.9922599999999997E-004  
   3.1448999999999998E-002  -3.4010190000000000E-006  -1.0152930000000000E-004  
   16    5                                                                      
   17745.689999999999        4.1000000000000000E-005  -1.5000000000000000E-005  
   4200.7209999999995        3.6900000000000002E-004  -1.2999999999999999E-004  
   1364.4290000000001        2.1289999999999998E-003  -7.5100000000000004E-004  
   522.08060000000000        9.3690000000000006E-003  -3.3289999999999999E-003  
   221.45949999999999        3.3097000000000001E-002  -1.1912000000000001E-002  
   100.90960000000000        9.4431000000000001E-002  -3.4932999999999999E-002  
   48.401150000000001       0.20807700000000001       -7.9989000000000005E-002  
   23.985360000000000       0.33233299999999999      -0.13463600000000001       
   12.182499999999999       0.33298699999999998      -0.13859800000000000       
   6.2422979999999999       0.15684300000000001        3.0277999999999999E-002  
   3.1109439999999999        2.1548999999999999E-002  0.33321600000000001      -
   1.5099579999999999       -2.0950000000000001E-003  0.45615299999999998      -
  0.71084499999999995       -1.7390000000000001E-003  0.28505100000000000      -
  0.27318999999999999       -2.9999999999999997E-004   4.6143999999999998E-002  
  0.10423300000000001        2.9000000000000000E-005  -3.2490000000000002E-003  
   3.8290999999999999E-002  -1.1000000000000000E-005   1.3569999999999999E-003  
    8    3                                                                      
   113.34399999999999        3.5300000000000002E-003  -3.8899999999999998E-003  
   33.641399999999997        2.5784000000000001E-002  -2.8441999999999999E-002  
   12.331000000000000        9.9118999999999999E-002 -0.11242900000000000       
   4.9947800000000004       0.23907300000000001      -0.27425699999999997       
   2.0728000000000000       0.35719899999999999      -0.31554599999999999       
  0.83075299999999996       0.36218800000000001        5.7109000000000000E-002  
  0.30917800000000001       0.23646100000000000       0.56360399999999999       
  0.10013000000000000        6.0117999999999998E-002  0.38463700000000001       
    2    1                                                                      
   3.2242999999999999       0.42224899999999999                                 
  0.77580000000000005       0.77146800000000004                                 
          6.00000000    1    3    1    1    1                                   
C #2   0.000000000000000  -3.457379119003190   0.000000000000000                
    9    3                                                                      
   6665.0000000000000        6.9200000000000002E-004  -1.4600000000000000E-004  
   1000.0000000000000        5.3290000000000004E-003  -1.1540000000000001E-003  
   228.00000000000000        2.7077000000000000E-002  -5.7250000000000001E-003  
   64.709999999999994       0.10171800000000000       -2.3311999999999999E-002  
   21.059999999999999       0.27473999999999998       -6.3954999999999998E-002  
   7.4950000000000001       0.44856400000000002      -0.14998100000000000       
   2.7970000000000002       0.28507399999999999      -0.12726199999999999       
  0.52149999999999996        1.5204000000000001E-002  0.54452900000000004       
  0.15959999999999999       -3.1909999999999998E-003  0.58049600000000001       
    4    2                                                                      
   9.4390000000000001        3.8108999999999997E-002   0.0000000000000000       
   2.0019999999999998       0.20948000000000000        0.0000000000000000       
  0.54559999999999997       0.50855700000000004        0.0000000000000000       
  0.15170000000000000       0.46884199999999998        1.0000000000000000       
    1    1                                                                      
  0.55000000000000004        1.0000000000000000                                 
          6.00000000    1    3    1    1    1                                   
C #3  -2.995588988735656   0.000000000000000  -1.729504109028010                
    9    3                                                                      
   6665.0000000000000        6.9200000000000002E-004  -1.4600000000000000E-004  
   1000.0000000000000        5.3290000000000004E-003  -1.1540000000000001E-003  
   228.00000000000000        2.7077000000000000E-002  -5.7250000000000001E-003  
   64.709999999999994       0.10171800000000000       -2.3311999999999999E-002  
   21.059999999999999       0.27473999999999998       -6.3954999999999998E-002  
   7.4950000000000001       0.44856400000000002      -0.14998100000000000       
   2.7970000000000002       0.28507399999999999      -0.12726199999999999       
  0.52149999999999996        1.5204000000000001E-002  0.54452900000000004       
  0.15959999999999999       -3.1909999999999998E-003  0.58049600000000001       
    4    2                                                                      
   9.4390000000000001        3.8108999999999997E-002   0.0000000000000000       
   2.0019999999999998       0.20948000000000000        0.0000000000000000       
  0.54559999999999997       0.50855700000000004        0.0000000000000000       
  0.15170000000000000       0.46884199999999998        1.0000000000000000       
    1    1                                                                      
  0.55000000000000004        1.0000000000000000                                 
          6.00000000    1    3    1    1    1                                   
C #4  -0.000000000000001   0.000000000000000   3.459008218056020                
    9    3                                                                      
   6665.0000000000000        6.9200000000000002E-004  -1.4600000000000000E-004  
   1000.0000000000000        5.3290000000000004E-003  -1.1540000000000001E-003  
   228.00000000000000        2.7077000000000000E-002  -5.7250000000000001E-003  
   64.709999999999994       0.10171800000000000       -2.3311999999999999E-002  
   21.059999999999999       0.27473999999999998       -6.3954999999999998E-002  
   7.4950000000000001       0.44856400000000002      -0.14998100000000000       
   2.7970000000000002       0.28507399999999999      -0.12726199999999999       
  0.52149999999999996        1.5204000000000001E-002  0.54452900000000004       
  0.15959999999999999       -3.1909999999999998E-003  0.58049600000000001       
    4    2                                                                      
   9.4390000000000001        3.8108999999999997E-002   0.0000000000000000       
   2.0019999999999998       0.20948000000000000        0.0000000000000000       
  0.54559999999999997       0.50855700000000004        0.0000000000000000       
  0.15170000000000000       0.46884199999999998        1.0000000000000000       
    1    1                                                                      
  0.55000000000000004        1.0000000000000000                                 
          8.00000000    1    3    1    1    1                                   
O #5  -0.000000000000000  -5.638566150538215   0.000000000000000                
    9    3                                                                      
   11720.000000000000        7.1000000000000002E-004  -1.6000000000000001E-004  
   1759.0000000000000        5.4700000000000000E-003  -1.2630000000000000E-003  
   400.80000000000001        2.7837000000000001E-002  -6.2670000000000000E-003  
   113.70000000000000       0.10480000000000000       -2.5715999999999999E-002  
   37.030000000000001       0.28306199999999998       -7.0924000000000001E-002  
   13.270000000000000       0.44871899999999998      -0.16541100000000000       
   5.0250000000000004       0.27095200000000003      -0.11695500000000000       
   1.0129999999999999        1.5458000000000000E-002  0.55736799999999997       
  0.30230000000000001       -2.5850000000000001E-003  0.57275900000000002       
    4    2                                                                      
   17.699999999999999        4.3018000000000001E-002   0.0000000000000000       
   3.8540000000000001       0.22891300000000001        0.0000000000000000       
   1.0460000000000000       0.50872799999999996        0.0000000000000000       
  0.27529999999999999       0.46053100000000002        1.0000000000000000       
    1    1                                                                      
   1.1850000000000001        1.0000000000000000                                 
          8.00000000    1    3    1    1    1                                   
O #6  -4.889245707483187  -0.000000000000000  -2.822807325349641                
    9    3                                                                      
   11720.000000000000        7.1000000000000002E-004  -1.6000000000000001E-004  
   1759.0000000000000        5.4700000000000000E-003  -1.2630000000000000E-003  
   400.80000000000001        2.7837000000000001E-002  -6.2670000000000000E-003  
   113.70000000000000       0.10480000000000000       -2.5715999999999999E-002  
   37.030000000000001       0.28306199999999998       -7.0924000000000001E-002  
   13.270000000000000       0.44871899999999998      -0.16541100000000000       
   5.0250000000000004       0.27095200000000003      -0.11695500000000000       
   1.0129999999999999        1.5458000000000000E-002  0.55736799999999997       
  0.30230000000000001       -2.5850000000000001E-003  0.57275900000000002       
    4    2                                                                      
   17.699999999999999        4.3018000000000001E-002   0.0000000000000000       
   3.8540000000000001       0.22891300000000001        0.0000000000000000       
   1.0460000000000000       0.50872799999999996        0.0000000000000000       
  0.27529999999999999       0.46053100000000002        1.0000000000000000       

Running with 32 threads/proc

    1    1                                                                      
   1.1850000000000001        1.0000000000000000                                 
          8.00000000    1    3    1    1    1                                   
O #7  -0.000000000000000  -0.000000000000000   5.645614650699281                
    9    3                                                                      
   11720.000000000000        7.1000000000000002E-004  -1.6000000000000001E-004  
   1759.0000000000000        5.4700000000000000E-003  -1.2630000000000000E-003  
   400.80000000000001        2.7837000000000001E-002  -6.2670000000000000E-003  
   113.70000000000000       0.10480000000000000       -2.5715999999999999E-002  
   37.030000000000001       0.28306199999999998       -7.0924000000000001E-002  
   13.270000000000000       0.44871899999999998      -0.16541100000000000       
   5.0250000000000004       0.27095200000000003      -0.11695500000000000       
   1.0129999999999999        1.5458000000000000E-002  0.55736799999999997       
  0.30230000000000001       -2.5850000000000001E-003  0.57275900000000002       
    4    2                                                                      
   17.699999999999999        4.3018000000000001E-002   0.0000000000000000       
   3.8540000000000001       0.22891300000000001        0.0000000000000000       
   1.0460000000000000       0.50872799999999996        0.0000000000000000       
  0.27529999999999999       0.46053100000000002        1.0000000000000000       
    1    1                                                                      
   1.1850000000000001        1.0000000000000000                                 
FINISH                                                                          

********************************************************************************
 ONE- AND TWO-ELECTRON INTEGRALS OVER SYMMETRY-ADAPTED AOS ARE CALCULATED.

  SPHERICAL HARMONICS ARE USED.
  
  INTEGRALS LESS THAN  0.10E-13 ARE NEGLECTED.

  NUCLEAR REPULSION ENERGY :  794.3241699683 A.U.
  @MOLECU-I, ONE ELECTRON INTEGRALS (CPU/WALL):        1.04/       0.13 SECONDS.
  @TWOEL-I,    4283576 INTEGRALS OF SYMMETRY TYPE  I I I I
  @TWOEL-I,   13298506 INTEGRALS OF SYMMETRY TYPE  I J I J
  @TWOEL-I,    6960296 INTEGRALS OF SYMMETRY TYPE  I I J J
  @TWOEL-I,    8577160 INTEGRALS OF SYMMETRY TYPE  I J K L
  @TWOEL-I, TOTAL NUMBER OF 2-E INTEGRALS   33119538.
  @MOLECU-I, TWO ELECTRON INTEGRALS (CPU/WALL):       47.55/      17.27 SECONDS.
 @CHECKOUT-I, Total execution time (CPU/WALL):       48.64/      17.40 seconds.
--executable xvmol finished with status     0 in       17.44 seconds (walltime).
 --invoking executable--
/opt/cfour/2.1/bin/xvmol2ja
 @GETMEM-I,  Allocated   30517 MB of main memory.
 @CHECKOUT-I, Total execution time (CPU/WALL):        0.51/       0.03 seconds.
--executable xvmol2ja finished with status     0 in        0.07 seconds (walltime).
 --invoking executable--
/opt/cfour/2.1/bin/xvscf
  There are  183 functions in the AO basis.

  There are 4 irreducible representations.

       Irrep        # of functions
         1                 73
         2                 44
         3                 44
         4                 22


  Parameters for SCF calculation: 
        SCF reference function:  RHF  
  Maximum number of iterations:  500
     Full symmetry point group: D3h 
     Computational point group: C2v 
        Initial density matrix: MOREAD                 
     SCF convergence tolerance: 10**(-10)
  DIIS convergence acceleration:  ON
          Latest start for DIIS:   8
                     DIIS order:   6

  Memory information:    1346178 words required.
  Fock matrices are constructed from AO integral file.
 @GETMEM-I,  Allocated      10 MB of main memory.
  Initialization and symmetry analysis required      0.005 seconds.

  @INITGES-I, Occupancies from core Hamiltonian:

          Alpha population by irrep:  23   10   11    4
           Beta population by irrep:  23   10   11    4


 total no. of electrons in initial guess :   0.0000000000000000     
  --------------------------------------------------------------------
  Iteration         Total Energy            Largest Density Difference
  --------------------------------------------------------------------
       0           794.324169968254751              0.0000000000D+00
   current occupation vector 
    23 10 11  4
    23 10 11  4
       1         -1388.920728077110653              0.9505664645D+03
   current occupation vector 
    23 10 11  4
    23 10 11  4
       2         -1256.093590415159724              0.9134290242D+03
   current occupation vector 
    21 12 11  4
    21 12 11  4
       3         -1384.980552247458490              0.9683702982D+03
   current occupation vector 
    23 11 11  3
    23 11 11  3
       4         -1253.997169047741409              0.9728549551D+03
   current occupation vector 
    22 11 11  4
    22 11 11  4
       5         -1383.582580278073237              0.9946327999D+03
   current occupation vector 
    23 11 11  3
    23 11 11  3
       6         -1251.312683003712664              0.9963916493D+03
   current occupation vector 
    23 11 10  4
    23 11 10  4
       7         -1383.670815039581157              0.1054079549D+04
   current occupation vector 
    23 11 11  3
    23 11 11  3
       8         -1251.266071466603535              0.1054277972D+04
   current occupation vector 
    23 11 10  4
    23 11 10  4
       9         -1690.202118206814703              0.1415608018D+03
   current occupation vector 
    22 11 12  3
    22 11 12  3
      10         -1803.814749722133456              0.1204422086D+03
   current occupation vector 
    23 11 11  3
    23 11 11  3
      11         -1824.734979778326306              0.2858654619D+02
   current occupation vector 
    23 11 11  3
    23 11 11  3
      12         -1822.734824312879027              0.2711245624D+01
   current occupation vector 
    23 11 11  3
    23 11 11  3
      13         -1825.904016273837442              0.1804631796D+01
   current occupation vector 
    23 11 11  3
    23 11 11  3
      14         -1825.706054066026354              0.1630575232D+01
   current occupation vector 
    23 11 11  3
    23 11 11  3
      15         -1825.859481318046619              0.1636135556D+00
   current occupation vector 
    23 11 11  3
    23 11 11  3
      16         -1825.980055274183542              0.5882962545D+00
   current occupation vector 
    23 11 11  3
    23 11 11  3
      17         -1825.984778237814226              0.7764612210D-01
   current occupation vector 
    23 11 11  3
    23 11 11  3
      18         -1825.985879767240021              0.6305859234D-01
   current occupation vector 
    23 11 11  3
    23 11 11  3
      19         -1825.986861683011739              0.9503901716D-01
   current occupation vector 
    23 11 11  3
    23 11 11  3
      20         -1825.987259284018819              0.8017372553D-01
   current occupation vector 
    23 11 11  3
    23 11 11  3
      21         -1825.987396717705451              0.4687712712D-01
   current occupation vector 
    23 11 11  3
    23 11 11  3
      22         -1825.987407287347196              0.1267614832D-01
   current occupation vector 
    23 11 11  3
    23 11 11  3
      23         -1825.987408799820969              0.4082269764D-02
   current occupation vector 
    23 11 11  3
    23 11 11  3
      24         -1825.987409940000362              0.4277944594D-02
   current occupation vector 
    23 11 11  3
    23 11 11  3
      25         -1825.987410175906916              0.1310442209D-02
   current occupation vector 
    23 11 11  3
    23 11 11  3
      26         -1825.987410495127733              0.2852591781D-02
   current occupation vector 
    23 11 11  3
    23 11 11  3
      27         -1825.987410697809082              0.2720224037D-02
   current occupation vector 
    23 11 11  3
    23 11 11  3
      28         -1825.987410888264094              0.4054275709D-02
   current occupation vector 
    23 11 11  3
    23 11 11  3
      29         -1825.987410953518975              0.2092793430D-02
   current occupation vector 
    23 11 11  3
    23 11 11  3
      30         -1825.987411016554233              0.2668496983D-02
   current occupation vector 
    23 11 11  3
    23 11 11  3
      31         -1825.987411042827262              0.1386475720D-02
   current occupation vector 
    23 11 11  3
    23 11 11  3
      32         -1825.987411092813545              0.3572086018D-02
   current occupation vector 
    23 11 11  3
    23 11 11  3
      33         -1825.987411100089048              0.8040659894D-03
   current occupation vector 
    23 11 11  3
    23 11 11  3
      34         -1825.987411105472347              0.1184120687D-02
   current occupation vector 
    23 11 11  3
    23 11 11  3
      35         -1825.987411106267700              0.3485719726D-03
   current occupation vector 
    23 11 11  3
    23 11 11  3
      36         -1825.987411106480977              0.1204931897D-03
   current occupation vector 
    23 11 11  3
    23 11 11  3
      37         -1825.987411106565105              0.6727521958D-04
   current occupation vector 
    23 11 11  3
    23 11 11  3
      38         -1825.987411106583750              0.3361891208D-04
   current occupation vector 
    23 11 11  3
    23 11 11  3
      39         -1825.987411106591480              0.1625681555D-04
   current occupation vector 
    23 11 11  3
    23 11 11  3
      40         -1825.987411106646960              0.2989534305D-04
   current occupation vector 
    23 11 11  3
    23 11 11  3
      41         -1825.987411106629224              0.1396657617D-04
   current occupation vector 
    23 11 11  3
    23 11 11  3
      42         -1825.987411106657873              0.3758794684D-04
   current occupation vector 
    23 11 11  3
    23 11 11  3
      43         -1825.987411106668333              0.1666597577D-04
   current occupation vector 
    23 11 11  3
    23 11 11  3
      44         -1825.987411106664695              0.2154709014D-04
   current occupation vector 
    23 11 11  3
    23 11 11  3
      45         -1825.987411106675609              0.1943423930D-04
   current occupation vector 
    23 11 11  3
    23 11 11  3
      46         -1825.987411106661966              0.2137117952D-04
   current occupation vector 
    23 11 11  3
    23 11 11  3
      47         -1825.987411106680156              0.8082774951D-05
   current occupation vector 
    23 11 11  3
    23 11 11  3
      48         -1825.987411106671061              0.2267557600D-05
   current occupation vector 
    23 11 11  3
    23 11 11  3
      49         -1825.987411106666059              0.5527910655D-05
   current occupation vector 
    23 11 11  3
    23 11 11  3
      50         -1825.987411106656964              0.7550857832D-06
   current occupation vector 
    23 11 11  3
    23 11 11  3
      51         -1825.987411106662421              0.2588742868D-05
   current occupation vector 
    23 11 11  3
    23 11 11  3
      52         -1825.987411106661511              0.3933183752D-06
   current occupation vector 
    23 11 11  3
    23 11 11  3
      53         -1825.987411106650598              0.1464279192D-05
   current occupation vector 
    23 11 11  3
    23 11 11  3
      54         -1825.987411106669697              0.2052168531D-05
   current occupation vector 
    23 11 11  3
    23 11 11  3
      55         -1825.987411106672880              0.1293876004D-05
   current occupation vector 
    23 11 11  3
    23 11 11  3
      56         -1825.987411106656054              0.3870024505D-06
   current occupation vector 
    23 11 11  3
    23 11 11  3
      57         -1825.987411106665149              0.5871670927D-06
   current occupation vector 
    23 11 11  3
    23 11 11  3
      58         -1825.987411106670606              0.2129664978D-07
   current occupation vector 
    23 11 11  3
    23 11 11  3
      59         -1825.987411106655600              0.4275766017D-06
   current occupation vector 
    23 11 11  3
    23 11 11  3
      60         -1825.987411106645595              0.2097204721D-07
   current occupation vector 
    23 11 11  3
    23 11 11  3
      61         -1825.987411106662876              0.9138060975D-07
   current occupation vector 
    23 11 11  3
    23 11 11  3
      62         -1825.987411106667423              0.6477301007D-07
   current occupation vector 
    23 11 11  3
    23 11 11  3
      63         -1825.987411106665604              0.6577616496D-07
   current occupation vector 
    23 11 11  3
    23 11 11  3
      64         -1825.987411106639684              0.9456363603D-07
   current occupation vector 
    23 11 11  3
    23 11 11  3
      65         -1825.987411106659692              0.3982739294D-07
   current occupation vector 
    23 11 11  3
    23 11 11  3
      66         -1825.987411106644231              0.2967187385D-08
   current occupation vector 
    23 11 11  3
    23 11 11  3
      67         -1825.987411106662421              0.9713135185D-08
   current occupation vector 
    23 11 11  3
    23 11 11  3
      68         -1825.987411106678337              0.2746318728D-08
   current occupation vector 
    23 11 11  3
    23 11 11  3
      69         -1825.987411106663330              0.6698700261D-08
   current occupation vector 
    23 11 11  3
    23 11 11  3
      70         -1825.987411106661057              0.1343396505D-08
   current occupation vector 
    23 11 11  3
    23 11 11  3
      71         -1825.987411106661511              0.1250452186D-08
   current occupation vector 
    23 11 11  3
    23 11 11  3
      72         -1825.987411106655145              0.6147020670D-09
   current occupation vector 
    23 11 11  3
    23 11 11  3
      73         -1825.987411106645595              0.4808597964D-09
   current occupation vector 
    23 11 11  3
    23 11 11  3
      74         -1825.987411106657873              0.4332223469D-09
   current occupation vector 
    23 11 11  3
    23 11 11  3
      75         -1825.987411106649233              0.7471809838D-09
   current occupation vector 
    23 11 11  3
    23 11 11  3
      76         -1825.987411106651962              0.8938361162D-09
   current occupation vector 
    23 11 11  3
    23 11 11  3
      77         -1825.987411106648779              0.7729639151D-09
   current occupation vector 
    23 11 11  3
    23 11 11  3
      78         -1825.987411106658783              0.2541575839D-09
   current occupation vector 
    23 11 11  3
    23 11 11  3
      79         -1825.987411106649688              0.9502958420D-09
   current occupation vector 
    23 11 11  3
    23 11 11  3
      80         -1825.987411106638319              0.1278173123D-08
   current occupation vector 
    23 11 11  3
    23 11 11  3
      81         -1825.987411106661966              0.3596536402D-09
   current occupation vector 
    23 11 11  3
    23 11 11  3

  SCF has converged.

 Density matrix saved to file den.dat
 total electron number:   96.000000000000384     
     E(SCF)=     -1825.987411106661966              0.9686407232D-10


  Final occupancies:

     Alpha population by irrep:  23   11   11    3
      Beta population by irrep:  23   11   11    3


  Eigenvector printing suppressed.

 @PUTMOS-I, Writing converged MOs to NEWMOS. 
 @PUTMOS-I, Symmetry   1 Full Blocks 18 Partial Blocksize   1
 @PUTMOS-I, Symmetry   2 Full Blocks 11 Partial Blocksize   0
 @PUTMOS-I, Symmetry   3 Full Blocks 11 Partial Blocksize   0
 @PUTMOS-I, Symmetry   4 Full Blocks  5 Partial Blocksize   2
 @PUTFOCK-I, Writing converged Fock matrix to NEWFOCK. 
 @PUTFOCK-I, Symmetry   1 Full Blocks 18 Partial Blocksize   1
 @PUTFOCK-I, Symmetry   2 Full Blocks 11 Partial Blocksize   0
 @PUTFOCK-I, Symmetry   3 Full Blocks 11 Partial Blocksize   0
 @PUTFOCK-I, Symmetry   4 Full Blocks  5 Partial Blocksize   2



  ORBITAL EIGENVALUES (ALPHA)  (1H = 27.2113834 eV)

       MO #        E(hartree)               E(eV)           FULLSYM    COMPSYM
       ----   --------------------   --------------------   -------   ---------
    1     1        -261.3755073404       -7112.3891416086    A1'         A1 (1)
    2     2         -31.9486350229        -869.3665567150    A1'         A1 (1)
    3   118         -27.4346435329        -746.5346036156    A2''        B2 (3)
    4     3         -27.4242106587        -746.2507106767     E'         A1 (1)
    5    74         -27.4242106587        -746.2507106766     E'         B1 (2)
    6   119         -20.6897490808        -562.9966946877     E          B2 (3)
    7     4         -20.6897480707        -562.9966672002     E          A1 (1)
    8    75         -20.6650483504        -562.3245536420                B1 (2)
    9     5         -20.6650483504        -562.3245536416                A1 (1)
   10     6         -20.6650478151        -562.3245390773                A1 (1)
   11   120         -11.4136560174        -310.5813698846     E          B2 (3)
   12     7         -11.4136540595        -310.5813166081     E          A1 (1)
   13    76         -11.3979047469        -310.1527560238                B1 (2)
   14     8         -11.3979047469        -310.1527560235                A1 (1)
   15     9         -11.3979046788        -310.1527541728                A1 (1)
   16    10          -4.1282002643        -112.3340401443    A1'         A1 (1)
   17   121          -2.7175145376         -73.9473299764    A2''        B2 (3)
   18    11          -2.7046383068         -73.5969499245     E'         A1 (1)
   19    77          -2.7046383068         -73.5969499244     E'         B1 (2)
   20    12          -1.5282770058         -41.5865315468    A1'         A1 (1)
   21   122          -1.5281780366         -41.5838384562    A2''        B2 (3)
   22    13          -1.5046423181         -40.9433989978    A1'         A1 (1)
   23    78          -1.5044699072         -40.9387074591     E'         B1 (2)
   24    14          -1.5044699072         -40.9387074587     E'         A1 (1)
   25    15          -0.8645320753         -23.5251137616    A1'         A1 (1)
   26   123          -0.8280255523         -22.5317207679    A2''        B2 (3)
   27    79          -0.8077997918         -21.9813498448     E'         B1 (2)
   28    16          -0.8077997918         -21.9813498444     E'         A1 (1)
   29    17          -0.8075762920         -21.9752681056    A1'         A1 (1)
   30    18          -0.7283537012         -19.8195118134    A1'         A1 (1)
   31   162          -0.6681160696         -18.1803625263     E''        A2 (4)
   32   124          -0.6681160696         -18.1803625262     E''        B2 (3)
   33   125          -0.6664192438         -18.1341895474    A2''        B2 (3)
   34    80          -0.6648564868         -18.0916647692     E'         B1 (2)
   35    19          -0.6648564868         -18.0916647691     E'         A1 (1)
   36    20          -0.6427823863         -17.4909979553     E'         A1 (1)
   37    81          -0.6427823862         -17.4909979550     E'         B1 (2)
   38    82          -0.6319158498         -17.1953044648    A2'         B1 (2)
   39   163          -0.6254837278         -17.0202775263     E''        A2 (4)
   40   126          -0.6254837277         -17.0202775260     E''        B2 (3)
   41    83          -0.6218497255         -16.9213912985     E'         B1 (2)
   42    21          -0.6218497255         -16.9213912985     E'         A1 (1)
   43    22          -0.6041853528         -16.4407192809    A1'         A1 (1)
   44   127          -0.6006491038         -16.3444930536    A2''        B2 (3)
   45   128          -0.4813171617         -13.0973058230     E''        B2 (3)
   46   164          -0.4813171616         -13.0973058226     E''        A2 (4)
   47    23          -0.3438166194          -9.3557258492     E'         A1 (1)
   48    84          -0.3438166193          -9.3557258476     E'         B1 (2)
  +++++++++++++++++++++++++++++++++++++++++++++++++++++++++++++++++++++++++++++
   49    24           0.0819438651           2.2298059315    A1'         A1 (1)
   50   165           0.0916296423           2.4933693273     E''        A2 (4)
   51   129           0.0916296423           2.4933693274     E''        B2 (3)
   52   130           0.1045467967           2.8448629682    A2''        B2 (3)
   53    25           0.1100105531           2.9935393397     E'         A1 (1)
   54    85           0.1100105532           2.9935393401     E'         B1 (2)
   55    86           0.1336205734           3.6360006538     E'         B1 (2)
   56    26           0.1336205734           3.6360006538     E'         A1 (1)
   57    87           0.1380669552           3.7569928534    A2'         B1 (2)
   58   131           0.1482083475           4.0329541664    A2''        B2 (3)
   59    27           0.1518514716           4.1320886125     E'         A1 (1)
   60    88           0.1518514716           4.1320886132     E'         B1 (2)
   61   166           0.2123079043           5.7771917831     E''        A2 (4)
   62   132           0.2123079043           5.7771917833     E''        B2 (3)
   63    28           0.2708733223           7.3708378256    A1'         A1 (1)
   64    29           0.3474592986           9.4548481892    A1'         A1 (1)
   65    30           0.3740655423          10.1788408876     E'         A1 (1)
   66    89           0.3740655423          10.1788408880     E'         B1 (2)
   67   133           0.4339319003          11.8078873099     E''        B2 (3)
   68   167           0.4339319004          11.8078873100     E''        A2 (4)
   69   134           0.4767491346          12.9730034877    A2''        B2 (3)
   70    31           0.4859822399          13.2242490568    A1'         A1 (1)
   71    32           0.5358835341          14.5821323035    A1'         A1 (1)
   72    33           0.5404184593          14.7055338923     E'         A1 (1)
   73    90           0.5404184593          14.7055338932     E'         B1 (2)
   74   135           0.6522923366          17.7497768610    A2''        B2 (3)
   75    34           0.6763114084          18.4033690315     E'         A1 (1)
   76    91           0.6763114084          18.4033690316     E'         B1 (2)
   77    35           0.6965783677          18.9548610305    A1'         A1 (1)
   78   168           0.7005462409          19.0628323494     E''        A2 (4)
   79   136           0.7005462409          19.0628323497     E''        B2 (3)
   80    36           0.7357449303          20.0206373827     E'         A1 (1)
   81    92           0.7357449303          20.0206373827     E'         B1 (2)
   82    93           0.7708312036          20.9753834188    A2'         B1 (2)
   83   137           0.7782360221          21.1768787717    A2''        B2 (3)
   84    37           0.8389522003          22.8290499766    A1'         A1 (1)
   85    38           0.8614569074          23.4414341901     E'         A1 (1)
   86    94           0.8614569074          23.4414341903     E'         B1 (2)
   87   169           0.8715676140          23.7165605029     E''        A2 (4)
   88   138           0.8715676140          23.7165605030     E''        B2 (3)
   89   139           0.9008066225          24.5121943728    A2''        B2 (3)
   90    39           0.9263449563          25.2071277656     E'         A1 (1)
   91    95           0.9263449563          25.2071277659     E'         B1 (2)
   92    40           0.9411947866          25.6112121930    A1'         A1 (1)
   93    41           0.9910482479          26.9677938406    A1'         A1 (1)
   94    96           1.0143566507          27.6020477263     E'         B1 (2)
   95    42           1.0143566507          27.6020477263     E'         A1 (1)
   96   140           1.0173996042          27.6848507019    A2''        B2 (3)
   97    43           1.0644240525          28.9644509934    A1'         A1 (1)
   98    44           1.2180589116          33.1450680462     E'         A1 (1)
   99    97           1.2180589116          33.1450680464     E'         B1 (2)
  100   170           1.2277092706          33.4076676651     E''        A2 (4)
  101   141           1.2277092706          33.4076676652     E''        B2 (3)
  102   142           1.2470349147          33.9335451760    A2''        B2 (3)
  103   171           1.2511444477          34.0453712547     E''        A2 (4)
  104   143           1.2511444477          34.0453712548     E''        B2 (3)
  105    45           1.2636741681          34.3863222808     E'         A1 (1)
  106    98           1.2636741681          34.3863222808     E'         B1 (2)
  107    99           1.2882723826          35.0556737257    A2'         B1 (2)
  108   172           1.3154724729          35.7958258122    A1''        A2 (4)
  109    46           1.3247883128          36.0493227025     E'         A1 (1)
  110   100           1.3247883128          36.0493227026     E'         B1 (2)
  111    47           1.3349870293          36.3268438886    A1'         A1 (1)
  112   173           1.3470161815          36.6541737597     E''        A2 (4)
  113   144           1.3470161815          36.6541737597     E''        B2 (3)
  114   145           1.3875477965          37.7570950762     E''        B2 (3)
  115   174           1.3875477965          37.7570950762     E''        A2 (4)
  116   101           1.4046110414          38.2214095749     E'         B1 (2)
  117    48           1.4046110414          38.2214095750     E'         A1 (1)
  118   102           1.4462651738          39.3548761437    A2'         B1 (2)
  119   146           1.4518230850          39.5061145936    A2''        B2 (3)
  120    49           1.4861100157          40.4391094108     E'         A1 (1)
  121   103           1.4861100157          40.4391094109     E'         B1 (2)
  122   147           1.5016217033          40.8612038905     E''        B2 (3)
  123   175           1.5016217033          40.8612038906     E''        A2 (4)
  124    50           1.5802676536          43.0012689958    A1'         A1 (1)
  125    51           1.5898997945          43.2633728755     E'         A1 (1)
  126   104           1.5898997946          43.2633728778     E'         B1 (2)
  127   148           1.6131092629          43.8949346199    A2''        B2 (3)
  128   176           1.7016878991          46.3052818500     E''        A2 (4)
  129   149           1.7016878991          46.3052818501     E''        B2 (3)
  130    52           1.7230200449          46.8857590482     E'         A1 (1)
  131   105           1.7230200449          46.8857590487     E'         B1 (2)
  132    53           1.7577868362          47.8318115355    A1'         A1 (1)
  133   150           1.8191846827          49.5025318752    A2''        B2 (3)
  134    54           1.8396878828          50.0604523163     E'         A1 (1)
  135   106           1.8396878828          50.0604523166     E'         B1 (2)
  136    55           1.9603017423          53.3425222884    A1'         A1 (1)
  137    56           2.1136825290          57.5162256829    A1'         A1 (1)
  138   151           2.1311837100          57.9924570296    A2''        B2 (3)
  139   107           2.1484148950          58.4613414101     E'         B1 (2)
  140    57           2.1484148950          58.4613414103     E'         A1 (1)
  141    58           2.1762768281          59.2195031545    A1'         A1 (1)
  142   152           2.2995183687          62.5730759671     E''        B2 (3)
  143   177           2.2995183687          62.5730759671     E''        A2 (4)
  144    59           2.4845738220          67.6086908561    A1'         A1 (1)
  145    60           2.5095547178          68.2884555897     E'         A1 (1)
  146   108           2.5095547178          68.2884555899     E'         B1 (2)
  147   153           2.8412564071          77.3145174304    A2''        B2 (3)
  148    61           2.8921906071          78.7005074765    A1'         A1 (1)
  149   178           2.9194810493          79.4431181616     E''        A2 (4)
  150   154           2.9194810493          79.4431181616     E''        B2 (3)
  151   109           2.9215523250          79.4994804400     E'         B1 (2)
  152    62           2.9215523250          79.4994804400     E'         A1 (1)
  153   179           2.9348372286          79.8609810438    A1''        A2 (4)
  154   110           2.9388845002          79.9711129035     E'         B1 (2)
  155    63           2.9388845002          79.9711129039     E'         A1 (1)
  156   155           2.9401669695          80.0060106668     E''        B2 (3)
  157   180           2.9401669695          80.0060106672     E''        A2 (4)
  158    64           2.9555144376          80.4236365056    A1'         A1 (1)
  159   111           3.0731219871          83.6239006257     E'         B1 (2)
  160    65           3.0731219871          83.6239006258     E'         A1 (1)
  161   112           3.2291433939          87.8694589451    A2'         B1 (2)
  162   181           3.2975798254          89.7317089219     E''        A2 (4)
  163   156           3.2975798254          89.7317089221     E''        B2 (3)
  164    66           3.4706779390          94.4419480570     E'         A1 (1)
  165   113           3.4706779390          94.4419480571     E'         B1 (2)
  166   157           3.4865147805          94.8728904209    A2''        B2 (3)
  167   158           3.4901925963          94.9729688786     E''        B2 (3)
  168   182           3.4901925963          94.9729688786     E''        A2 (4)
  169    67           3.5687324603          97.1101472296     E'         A1 (1)
  170   114           3.5687324603          97.1101472298     E'         B1 (2)
  171    68           3.5772174742          97.3410361962    A1'         A1 (1)
  172   183           3.7794382376         102.8437429206     E''        A2 (4)
  173   159           3.7794382376         102.8437429207     E''        B2 (3)
  174    69           3.8378361080         104.4328297621    A1'         A1 (1)
  175   160           3.8436699441         104.5915765115    A2''        B2 (3)
  176   115           3.8692446520         105.2874996949     E'         B1 (2)
  177    70           3.8692446520         105.2874996952     E'         A1 (1)
  178   116           3.9568611994         107.6716671577    A2'         B1 (2)
  179    71           3.9943222821         108.6910350411    A1'         A1 (1)
  180   117           4.2029210166         114.3672951837     E'         B1 (2)
  181    72           4.2029210167         114.3672951842     E'         A1 (1)
  182   161           4.4685759837         121.5961343432    A2''        B2 (3)
  183    73           4.5211205787         123.0259454648    A1'         A1 (1)


  VSCF finished.

 @CHECKOUT-I, Total execution time (CPU/WALL):      254.28/      16.29 seconds.
--executable xvscf finished with status     0 in       16.30 seconds (walltime).
 --invoking executable--
/opt/cfour/2.1/bin/xvtran
 @GETMEM-I,  Allocated   30517 MB of main memory.
  Full RHF integral transformation
  Frozen-core orbitals requested within analytic derivative calculation
  Transformation of IIII integrals :
  1 pass through the AO integral file was required.
     4283576 AO integrals were read.
     4657679 MO integrals were written to HF2.
  Transformation of IIJJ integrals :
  1 pass through the AO integral file was required.
     6960296 AO integrals were read.
     7507622 MO integrals were written to HF2.
  Transformation of IJIJ integrals :
  1 pass through the AO integral file was required.
    13298506 AO integrals were read.
    14415492 MO integrals were written to HF2.
  Transformation of IJKL integrals :
  1 pass through the AO integral file was required.
     8577160 AO integrals were read.
     9325878 MO integrals were written to HF2.
  Summary of active molecular orbitals: 
------------------------------------------------------------------------

  Index      Eigenvalue    Symmetry    Index      Eigenvalue    Symmetry
------------------------------------------------------------------------
     1      -261.3755073        1        93         3.5772175        1
     2       -31.9486350        1        94         3.8378361        1
     3       -27.4242107        1        95         3.8692447        1
     4       -20.6897481        1        96         3.9943223        1
     5       -20.6650484        1        97         4.2029210        1
     6       -20.6650478        1        98         4.5211206        1
     7       -11.4136541        1        99         0.1100106        2
     8       -11.3979047        1       100         0.1336206        2
     9       -11.3979047        1       101         0.1380670        2
    10        -4.1282003        1       102         0.1518515        2
    11        -2.7046383        1       103         0.3740655        2
    12        -1.5282770        1       104         0.5404185        2
    13        -1.5046423        1       105         0.6763114        2
    14        -1.5044699        1       106         0.7357449        2
    15        -0.8645321        1       107         0.7708312        2
    16        -0.8077998        1       108         0.8614569        2
    17        -0.8075763        1       109         0.9263450        2
    18        -0.7283537        1       110         1.0143567        2
    19        -0.6648565        1       111         1.2180589        2
    20        -0.6427824        1       112         1.2636742        2
    21        -0.6218497        1       113         1.2882724        2
    22        -0.6041854        1       114         1.3247883        2
    23        -0.3438166        1       115         1.4046110        2
    24       -27.4242107        2       116         1.4462652        2
    25       -20.6650484        2       117         1.4861100        2
    26       -11.3979047        2       118         1.5898998        2
    27        -2.7046383        2       119         1.7230200        2
    28        -1.5044699        2       120         1.8396879        2
    29        -0.8077998        2       121         2.1484149        2
    30        -0.6648565        2       122         2.5095547        2
    31        -0.6427824        2       123         2.9215523        2
    32        -0.6319158        2       124         2.9388845        2
    33        -0.6218497        2       125         3.0731220        2
    34        -0.3438166        2       126         3.2291434        2
    35       -27.4346435        3       127         3.4706779        2
    36       -20.6897491        3       128         3.5687325        2
    37       -11.4136560        3       129         3.8692447        2
    38        -2.7175145        3       130         3.9568612        2
    39        -1.5281780        3       131         4.2029210        2
    40        -0.8280256        3       132         0.0916296        3
    41        -0.6681161        3       133         0.1045468        3
    42        -0.6664192        3       134         0.1482083        3
    43        -0.6254837        3       135         0.2123079        3
    44        -0.6006491        3       136         0.4339319        3
    45        -0.4813172        3       137         0.4767491        3
    46        -0.6681161        4       138         0.6522923        3
    47        -0.6254837        4       139         0.7005462        3
    48        -0.4813172        4       140         0.7782360        3
    49         0.0819439        1       141         0.8715676        3
    50         0.1100106        1       142         0.9008066        3
    51         0.1336206        1       143         1.0173996        3
    52         0.1518515        1       144         1.2277093        3
    53         0.2708733        1       145         1.2470349        3
    54         0.3474593        1       146         1.2511444        3
    55         0.3740655        1       147         1.3470162        3
    56         0.4859822        1       148         1.3875478        3
    57         0.5358835        1       149         1.4518231        3
    58         0.5404185        1       150         1.5016217        3
    59         0.6763114        1       151         1.6131093        3
    60         0.6965784        1       152         1.7016879        3
    61         0.7357449        1       153         1.8191847        3
    62         0.8389522        1       154         2.1311837        3
    63         0.8614569        1       155         2.2995184        3
    64         0.9263450        1       156         2.8412564        3
    65         0.9411948        1       157         2.9194810        3
    66         0.9910482        1       158         2.9401670        3
    67         1.0143567        1       159         3.2975798        3
    68         1.0644241        1       160         3.4865148        3
    69         1.2180589        1       161         3.4901926        3
    70         1.2636742        1       162         3.7794382        3
    71         1.3247883        1       163         3.8436699        3
    72         1.3349870        1       164         4.4685760        3
    73         1.4046110        1       165         0.0916296        4
    74         1.4861100        1       166         0.2123079        4
    75         1.5802677        1       167         0.4339319        4
    76         1.5898998        1       168         0.7005462        4
    77         1.7230200        1       169         0.8715676        4
    78         1.7577868        1       170         1.2277093        4
    79         1.8396879        1       171         1.2511444        4
    80         1.9603017        1       172         1.3154725        4
    81         2.1136825        1       173         1.3470162        4
    82         2.1484149        1       174         1.3875478        4
    83         2.1762768        1       175         1.5016217        4
    84         2.4845738        1       176         1.7016879        4
    85         2.5095547        1       177         2.2995184        4
    86         2.8921906        1       178         2.9194810        4
    87         2.9215523        1       179         2.9348372        4
    88         2.9388845        1       180         2.9401670        4
    89         2.9555144        1       181         3.2975798        4
    90         3.0731220        1       182         3.4901926        4
    91         3.4706779        1       183         3.7794382        4
    92         3.5687325        1
------------------------------------------------------------------------
[...]
a90        0.000000     -0.000000     -0.000000     -0.000000      0.000000
d0         0.000000     -0.000000     -0.000000      0.000000      0.000000
---------------------------------------------------------------------------
              0.229        62.041        62.041        96.246        96.246
---------------------------------------------------------------------------
rFeCA     -0.000000     -0.000000      0.000000     -0.000001     -0.000000
rFeCE      0.000000      0.003213      0.006569      0.000000     -0.000000
a90        0.000000      0.105413      0.215546      0.164195      0.292390
rFeCE      0.000000     -0.006426     -0.000000      0.000000     -0.000000
a120      -0.000000      0.360738     -0.737627      0.000000     -0.000000
dn90      -0.000000      0.182580     -0.124445      0.284400     -0.168811
rFeCE      0.000000      0.003213     -0.006569     -0.000000      0.000000
a120       0.000000     -0.721475     -0.000000     -0.000000      0.000000
d90       -0.000000      0.182580     -0.124445      0.284395     -0.168811
rFeCA     -0.000000     -0.000000     -0.000000      0.000001      0.000000
a90       -0.000000      0.105413      0.215546     -0.164195     -0.292390
dn90       0.000000      0.182580     -0.124445     -0.284400      0.168811
rFeOA     -0.000000     -0.000000      0.000000     -0.000001     -0.000000
a90        0.000000      0.134199      0.274407      0.213464      0.380123
d90        0.000000     -0.232439      0.158429     -0.369735      0.219464
rFeOA     -0.000000     -0.000000     -0.000000      0.000001      0.000000
a90       -0.000000      0.134199      0.274407     -0.213464     -0.380123
dn90       0.000000      0.232439     -0.158429     -0.369735      0.219464
rFeOE      0.000000      0.005625      0.011503      0.000000     -0.000000
a90        0.000000      0.105413      0.215546      0.237657      0.423207
d0         0.000000     -0.089760      0.061179     -0.000000      0.000000
rFeOE      0.000000     -0.011251     -0.000000      0.000000     -0.000000
a90        0.000000     -0.210826     -0.000000     -0.475321     -0.000000
d0        -0.000000      0.000000     -0.122359      0.000000     -0.000000
rFeOE      0.000000      0.005625     -0.011503     -0.000000      0.000000
a90       -0.000000      0.105413     -0.215546      0.237657     -0.423207
d0         0.000000      0.089760      0.061179     -0.000000      0.000000
---------------------------------------------------------------------------
            103.059       108.051       108.051       372.422       372.423
---------------------------------------------------------------------------
rFeCA     -0.090339     -0.000000      0.000000     -0.000000      0.000000
rFeCE     -0.000000      0.056582     -0.104067      0.000000     -0.000000
a90       -0.185647      0.142393     -0.261890     -0.111913      0.064345
rFeCE     -0.000000     -0.113165      0.000000      0.000000      0.000000
a120      -0.000000     -0.190493     -0.350356     -0.000000      0.000000
dn90       0.321547      0.246632      0.151202      0.064613      0.111449
rFeCE      0.000000      0.056582      0.104067      0.000000      0.000000
a120       0.000000      0.380986     -0.000000      0.000000      0.000000
d90       -0.321550      0.246632      0.151202      0.064613      0.111449
rFeCA      0.090339     -0.000000     -0.000000      0.000000     -0.000000
a90        0.185647      0.142393     -0.261890      0.111913     -0.064345
dn90      -0.321547      0.246632      0.151202     -0.064613     -0.111449
rFeOA     -0.087998     -0.000000      0.000000     -0.000000      0.000000
a90       -0.185647      0.224132     -0.412225     -0.493755      0.283887
d90       -0.321546     -0.388208     -0.237998     -0.285069     -0.491706
rFeOA      0.087998     -0.000000     -0.000000      0.000000     -0.000000
a90        0.185647      0.224132     -0.412225      0.493755     -0.283887
dn90      -0.321546      0.388208      0.237998     -0.285069     -0.491706
rFeOE     -0.000000      0.058897     -0.108323      0.000000     -0.000000
a90       -0.323198      0.142393     -0.261890      0.395164     -0.227202
d0         0.000000      0.126433      0.077512     -0.000000     -0.000000
rFeOE     -0.000000     -0.117793      0.000000      0.000000     -0.000000
a90       -0.323194     -0.284786      0.000000     -0.000000      0.454403
d0        -0.000000     -0.000000     -0.155023     -0.000000     -0.000000
rFeOE      0.000000      0.058897      0.108323      0.000000      0.000000
a90       -0.323198      0.142393      0.261890     -0.395164     -0.227202
d0        -0.000000     -0.126433      0.077512     -0.000000     -0.000000
---------------------------------------------------------------------------
            375.443       409.042       441.829       447.115       447.115
---------------------------------------------------------------------------
rFeCA     -0.000000     -0.299237      0.379037     -0.000000      0.000000
rFeCE      0.000000     -0.308213     -0.244271      0.222488      0.405592
a90        0.000000      0.000000      0.000000      0.057411      0.104660
rFeCE      0.000000     -0.308213     -0.244271     -0.444976      0.000000
a120      -0.000000     -0.000000      0.000000      0.212936     -0.388179
dn90      -0.000000      0.000000      0.000000      0.099439     -0.060425
rFeCE     -0.000000     -0.308213     -0.244271      0.222488     -0.405592
a120       0.000000      0.000000     -0.000000     -0.425872      0.000000
d90       -0.000000      0.000000      0.000000      0.099439     -0.060425
rFeCA     -0.000000     -0.299237      0.379037     -0.000000      0.000000
a90        0.000000      0.000000      0.000000      0.057411      0.104660
dn90      -0.000000      0.000000      0.000000      0.099439     -0.060425
rFeOA     -0.000000     -0.320959      0.404837     -0.000000      0.000000
a90       -0.000000     -0.000000     -0.000000     -0.036064     -0.065743
d90       -0.000000      0.000000      0.000000      0.062464     -0.037957
rFeOA     -0.000000     -0.320959      0.404837     -0.000000      0.000000
a90       -0.000000     -0.000000     -0.000000     -0.036064     -0.065743
dn90       0.000000     -0.000000     -0.000000     -0.062464      0.037957
rFeOE      0.000000     -0.331612     -0.261961      0.228070      0.415769
a90        0.000000      0.000000      0.000000      0.057411      0.104660
d0        -0.577350      0.000000      0.000000      0.221078     -0.134341
rFeOE      0.000000     -0.331612     -0.261961     -0.456140      0.000000
a90       -0.000000     -0.000000     -0.000000     -0.114823      0.000000
d0        -0.577350     -0.000000     -0.000000      0.000000      0.268682
rFeOE     -0.000000     -0.331612     -0.261961      0.228070     -0.415769
a90       -0.000000      0.000000      0.000000      0.057411     -0.104660
d0        -0.577350     -0.000000     -0.000000     -0.221078     -0.134341
---------------------------------------------------------------------------
            471.947       486.688       486.688       567.371       567.371
---------------------------------------------------------------------------
rFeCA      0.477918      0.000000      0.000000      0.000000      0.000000
rFeCE     -0.000000      0.468038      0.267771     -0.000000      0.000000
a90        0.049989     -0.016943     -0.009694     -0.272662      0.511848
rFeCE     -0.000000      0.000000     -0.535541     -0.000000      0.000000
a120      -0.000000      0.165231     -0.094531     -0.000000     -0.000000
dn90      -0.086583      0.009782     -0.016790     -0.472264     -0.295515
rFeCE     -0.000000     -0.468038      0.267771      0.000000      0.000000
a120       0.000000     -0.000000      0.189062     -0.000000      0.000000
d90        0.086584      0.009782     -0.016790     -0.472264     -0.295515
rFeCA     -0.477918     -0.000000      0.000000     -0.000000     -0.000000
a90       -0.049989     -0.016943     -0.009694      0.272662     -0.511848
dn90       0.086583      0.009782     -0.016790      0.472264      0.295515
rFeOA      0.493907      0.000000      0.000000      0.000000      0.000000
a90        0.049989     -0.030161     -0.017256     -0.113258      0.212610
d90        0.086583     -0.017414      0.029888      0.196168      0.122751
rFeOA     -0.493907     -0.000000      0.000000     -0.000000     -0.000000
a90       -0.049989     -0.030161     -0.017256      0.113258     -0.212610
dn90       0.086583      0.017414     -0.029888      0.196168      0.122751
rFeOE     -0.000000      0.492477      0.281753     -0.000000      0.000000
a90       -0.051061     -0.016943     -0.009694     -0.115176      0.216211
d0        -0.000000      0.087226     -0.149709     -0.000000      0.000000
rFeOE     -0.000000      0.000000     -0.563505     -0.000000      0.000000
a90       -0.051062     -0.000000      0.019387      0.230352      0.000000
d0         0.000000     -0.174452     -0.000000      0.000000     -0.000000
rFeOE     -0.000000     -0.492477      0.281753      0.000000      0.000000
a90       -0.051061      0.016943     -0.009694     -0.115176     -0.216211
d0        -0.000000      0.087226      0.149709     -0.000000      0.000000
---------------------------------------------------------------------------
            620.796       658.619       658.619      2045.831      2051.396
---------------------------------------------------------------------------
rFeCA      0.352834     -0.000000      0.000000      0.574905     -0.000000
rFeCE     -0.000000      0.394261     -0.218231     -0.000000      0.333310
a90       -0.161150     -0.227248      0.125786     -0.000321     -0.000203
rFeCE      0.000000     -0.000000      0.436462     -0.000000     -0.666620
a120      -0.000000     -0.283372     -0.156852     -0.000000     -0.000558
dn90       0.279119      0.131202      0.217868      0.000556     -0.000351
rFeCE      0.000000     -0.394261     -0.218231      0.000000      0.333310
a120       0.000000     -0.000000      0.313704     -0.000000      0.001115
d90       -0.279119      0.131202      0.217868     -0.000556     -0.000351
rFeCA     -0.352834      0.000000      0.000000     -0.574905     -0.000000
a90        0.161150     -0.227248      0.125786      0.000321     -0.000203
dn90      -0.279119      0.131202      0.217868     -0.000556     -0.000351
rFeOA      0.357004     -0.000000      0.000000     -0.411681      0.000000
a90       -0.161150     -0.024731      0.013689     -0.000321     -0.000549
d90       -0.279119     -0.014278     -0.023710     -0.000556      0.000950
rFeOA     -0.357004      0.000000      0.000000      0.411681      0.000000
a90        0.161150     -0.024731      0.013689      0.000321     -0.000549
dn90      -0.279119      0.014278      0.023710     -0.000556     -0.000950
rFeOE     -0.000000      0.397764     -0.220170      0.000000     -0.235731
a90       -0.029984     -0.227248      0.125786     -0.001213     -0.000203
d0        -0.000000     -0.073648     -0.122297     -0.000000     -0.001870
rFeOE      0.000000     -0.000000      0.440340      0.000000      0.471462
a90       -0.029984      0.000000     -0.251572     -0.001213      0.000405
d0         0.000000      0.147296      0.000000      0.000000      0.000000
rFeOE      0.000000     -0.397764     -0.220170     -0.000000     -0.235731
a90       -0.029984      0.227248      0.125786     -0.001213     -0.000203
d0         0.000000     -0.073648      0.122297     -0.000000      0.001870
---------------------------------------------------------------------------
           2051.396      2055.046      2124.435
---------------------------------------------------------------------------
rFeCA      0.000000      0.412528     -0.406065
rFeCE      0.577310     -0.331729     -0.337813
a90       -0.000351     -0.000000      0.000000
rFeCE     -0.000000     -0.331730     -0.337813
a120       0.000966     -0.000000      0.000000
dn90       0.000203     -0.000000      0.000000
rFeCE     -0.577310     -0.331729     -0.337813
a120      -0.000000      0.000000     -0.000000
d90        0.000203     -0.000000      0.000000
rFeCA      0.000000      0.412528     -0.406065
a90       -0.000351     -0.000000      0.000000
dn90       0.000203     -0.000000      0.000000
rFeOA      0.000000     -0.289750      0.284309
a90       -0.000950     -0.000000     -0.000000
d90       -0.000549      0.000000      0.000000
rFeOA      0.000000     -0.289750      0.284309
a90       -0.000950     -0.000000     -0.000000
dn90       0.000549     -0.000000     -0.000000
rFeOE     -0.408299      0.232091      0.235376
a90       -0.000351     -0.000000      0.000000
d0         0.001080     -0.000000      0.000000
rFeOE      0.000000      0.232091      0.235376
a90       -0.000000      0.000000     -0.000000
d0        -0.002159      0.000000      0.000000
rFeOE      0.408299      0.232091      0.235376
a90        0.000351     -0.000000      0.000000
d0         0.001080      0.000000     -0.000000
---------------------------------------------------------------------------

  ----------------------------------------------------------------
                    Dipole Moment Function
                   (Normal Coordinate Basis)
  ----------------------------------------------------------------
    Mode     Symmetry    d(Mu(x))/dQ   d(Mu(y))/dQ   d(Mu(z))/dQ
  ----------------------------------------------------------------
     Q7        A1'        -0.000000      0.000000      0.019516
     Q8        A2'         0.019516     -0.000000      0.000000
     Q9        A2''        0.000000     -0.000000      0.000000
     Q10       A1''       -0.000000     -0.000000      0.000000
     Q11       A2''       -0.000000      0.020643      0.000000
     Q12       A1'        -0.000000     -0.000000      0.015680
     Q13       A2'        -0.015680     -0.000000     -0.000000
     Q14       A1''        0.000000     -0.000000     -0.000000
     Q15       A2''        0.000000      0.000000      0.000000
     Q16       A2'        -0.000000     -0.000000     -0.000000
     Q17       A1'        -0.000000      0.000000     -0.000000
     Q18       A1'         0.000000      0.000000     -0.000000
     Q19       A1'        -0.000000      0.000000     -0.054393
     Q20       A2'        -0.054393      0.000000      0.000000
     Q21       A2''        0.000000     -0.106018      0.000000
     Q22       A2'        -0.086852     -0.000000      0.000000
     Q23       A1'        -0.000000     -0.000000     -0.086852
     Q24       A2''       -0.000000     -0.000000     -0.000000
     Q25       A1''       -0.000000     -0.000000      0.000000
     Q26       A2''       -0.000000     -0.400890      0.000000
     Q27       A2'        -0.423714      0.000000     -0.000000
     Q28       A1'        -0.000000      0.000000      0.423714
     Q29       A2''        0.000000     -1.134744     -0.000000
     Q30        E'        -0.000000      0.000000     -0.826117
     Q31        E'        -0.826117      0.000000      0.000000
     Q32       A1'         0.000000      0.000000     -0.000000
     Q33       A1'         0.000000      0.000000      0.000000
  ----------------------------------------------------------------
---------------------------------------------------------------------------
------------------------------------------------------------
        Parameter                (MHz)                 (CM-1)
------------------------------------------------------------

           R6                -.136546E-10           -.455467E-15
           R5                -.491373E-11           -.163904E-15
           SI                            0.100000E+81

  A-reduced centrifugal distortion parameters (Ir representation) 

           DJ                0.679175E-04           0.226548E-08
           DK                -.232851E-03           -.776706E-08
           DJK               0.183879E-03           0.613355E-08
           DELJ              0.679175E-04           0.226548E-08
           DELK              -.232851E-03           -.776706E-08
           DELJK             0.183879E-03           0.613355E-08
           delJ              0.692206E-12           0.230895E-16
           delK              0.546182E+70           0.182187E+66

  S-reduced centrifugal distortion parameters (Ir representation) 

           DJ                0.679175E-04           0.226548E-08
           DK                -.232851E-03           -.776706E-08
           DJK               0.183879E-03           0.613355E-08
           D1                -.692206E-12           -.230895E-16
           D2                -.136546E-10           -.455467E-15
------------------------------------------------------------
   Rotationally projected vibrational frequencies 
            1               0.0000i
            2               0.0000i
            3               0.0000i
            4               0.0000i
            5               0.0000 
            6               0.0000 
            7              62.0410 
            8              62.0410 
            9              96.2460 
           10              96.2460 
           11             103.0586 
           12             108.0511 
           13             108.0512 
           14             372.4225 
           15             372.4225 
           16             375.4429 
           17             409.0424 
           18             441.8292 
           19             447.1146 
           20             447.1146 
           21             471.9470 
           22             486.6879 
           23             486.6879 
           24             567.3714 
           25             567.3714 
           26             620.7956 
           27             658.6194 
           28             658.6194 
           29            2045.8307 
           30            2051.3963 
           31            2051.3963 
           32            2055.0459 
           33            2124.4346 
  Zero-point energy:   26.2288 kcal/mol =  109.7414 kJ/mol =    9173.664 cm-1 

  Finite temperature thermodynamic corrections:
=======================================================
Temperature     Entropy       Enthalpy     Gibbs Energy
    (K)        (J/(mol K))    (kJ/mol)      (kJ/mol) 
=======================================================
    298.15      441.6881       33.1960      -98.4933
    100.00      301.5548        6.3047      -23.8508
    200.00      379.7266       17.8628      -58.0825
    300.00      442.7429       33.5115      -99.3114
    400.00      494.5258       51.5542     -146.2561
    500.00      537.9535       71.0379     -197.9389
    600.00      575.3167       91.5445     -253.6455
    700.00      608.1573      112.8580     -312.8521
    800.00      637.4913      134.8326     -375.1604
    900.00      664.0114      157.3535     -440.2567
   1000.00      688.2123      180.3267     -507.8856
   1100.00      710.4627      203.6747     -577.8343
   1200.00      731.0474      227.3342     -649.9226
   1300.00      750.1919      251.2537     -723.9958
   1400.00      768.0789      275.3913     -799.9191
   1500.00      784.8585      299.7130     -877.5747
   1600.00      800.6557      324.1910     -956.8581
   1700.00      815.5760      348.8026    -1037.6766
   1800.00      829.7088      373.5288    -1119.9471
   1900.00      843.1310      398.3543    -1203.5947
   2000.00      855.9089      423.2659    -1288.5518
=======================================================
 @CHECKOUT-I, Total execution time (CPU/WALL):        1.06/       0.10 seconds.
--executable xjoda finished with status     0 in        0.14 seconds (walltime).
  The final electronic energy is     -1828.078580129011016 a.u. 
  This computation required                       325317.09 seconds (walltime).
Attempting to clean /scratch/jearias... save is False. TIME: Mon 02 Jun 2025 07:58:50 AM PDT
Total of 325317 seconds elapsed for this process.
