[Molden Format]
[N_Atoms]
                    5
[Atoms] (AU)
H1          1      1           0.00000000      0.00000000      0.00000000
C1          2      6           0.00000000      0.00000000      2.07302956
O1          3      8           2.36933580      0.00000000      2.98253236
H2          4      1           2.21883002      0.00000000      4.81316966
O2          5      8          -1.88089831      0.00000000      3.34649345
[Charge] (Mulliken)
   0.0000000000000000     
   0.0000000000000000     
   0.0000000000000000     
   0.0000000000000000     
   0.0000000000000000     
[GTO] (AU)
   1
   s   3
  3.425250914E+00  1.543289673E-01
  6.239137298E-01  5.353281423E-01
  1.688554040E-01  4.446345422E-01
 
   2
   s   3
  7.161683735E+01  1.543289673E-01
  1.304509632E+01  5.353281423E-01
  3.530512160E+00  4.446345422E-01
   s   3
  2.941249355E+00 -9.996722919E-02
  6.834830964E-01  3.995128261E-01
  2.222899159E-01  7.001154689E-01
   p   3
  2.941249355E+00  1.559162750E-01
  6.834830964E-01  6.076837186E-01
  2.222899159E-01  3.919573931E-01
 
   3
   s   3
  1.307093214E+02  1.543289673E-01
  2.380886605E+01  5.353281423E-01
  6.443608313E+00  4.446345422E-01
   s   3
  5.033151319E+00 -9.996722919E-02
  1.169596125E+00  3.995128261E-01
  3.803889600E-01  7.001154689E-01
   p   3
  5.033151319E+00  1.559162750E-01
  1.169596125E+00  6.076837186E-01
  3.803889600E-01  3.919573931E-01
 
   4
   s   3
  3.425250914E+00  1.543289673E-01
  6.239137298E-01  5.353281423E-01
  1.688554040E-01  4.446345422E-01
 
   5
   s   3
  1.307093214E+02  1.543289673E-01
  2.380886605E+01  5.353281423E-01
  6.443608313E+00  4.446345422E-01
   s   3
  5.033151319E+00 -9.996722919E-02
  1.169596125E+00  3.995128261E-01
  3.803889600E-01  7.001154689E-01
   p   3
  5.033151319E+00  1.559162750E-01
  1.169596125E+00  6.076837186E-01
  3.803889600E-01  3.919573931E-01
 
[MO]
Sym=     1a  
Ene=   -20.6790
Spin= Alpha
Occup=    2.00000
   1         0.00022360
   2         0.00173283
   3         0.00205928
   4        -0.00011404
   5        -0.00000000
   6         0.00086075
   7         0.72313703
   8         0.01265116
   9        -0.00004553
  10        -0.00000000
  11         0.00001095
  12         0.00112596
  13         0.68420440
  14         0.01196902
  15         0.00005218
  16        -0.00000000
  17        -0.00001490
Sym=     2a  
Ene=   -20.6780
Spin= Alpha
Occup=    2.00000
   1         0.00000238
   2         0.00036791
   3         0.00037197
   4        -0.00159732
   5         0.00000000
   6         0.00033941
   7        -0.68425581
   8        -0.01190021
   9        -0.00001570
  10        -0.00000000
  11        -0.00000204
  12        -0.00095592
  13         0.72319276
  14         0.01257311
  15        -0.00001006
  16         0.00000000
  17        -0.00001257
Sym=     3a  
Ene=   -11.3340
Spin= Alpha
Occup=    2.00000
   1         0.00328852
   2         0.99346163
   3         0.02114781
   4        -0.00003443
   5        -0.00000000
   6         0.00005229
   7        -0.00352040
   8         0.00387246
   9        -0.00251049
  10        -0.00000000
  11        -0.00094666
  12         0.00072715
  13        -0.00503314
  14         0.00585339
  15         0.00331975
  16         0.00000000
  17        -0.00224637
Sym=     4a  
Ene=    -1.6711
Spin= Alpha
Occup=    2.00000
   1         0.08195814
   2        -0.14432447
   3         0.31418432
   4         0.01830472
   5         0.00000000
   6         0.06466599
   7        -0.16577185
   8         0.56269454
   9        -0.06733628
  10        -0.00000000
  11         0.01519015
  12         0.14400274
  13        -0.12694146
  14         0.43091045
  15         0.06958565
  16         0.00000000
  17        -0.02885980
Sym=     5a  
Ene=    -1.4290
Spin= Alpha
Occup=    2.00000
   1         0.02111099
   2        -0.04574072
   3         0.09374442
   4        -0.19232690
   5         0.00000000
   6         0.02837279
   7         0.14933787
   8        -0.53776859
   9         0.00075283
  10        -0.00000000
  11        -0.01672697
  12        -0.11912044
  13        -0.18751523
  14         0.67308105
  15         0.02866591
  16         0.00000000
  17        -0.04796887
Sym=     6a  
Ene=    -0.9206
Spin= Alpha
Occup=    2.00000
   1        -0.35704367
   2         0.13787236
   3        -0.39630654
   4        -0.06016268
   5        -0.00000000
   6         0.24913243
   7        -0.03578926
   8         0.14848328
   9         0.16467408
  10        -0.00000000
  11         0.34282639
  12         0.18958440
  13        -0.07125553
  14         0.30420612
  15        -0.07368396
  16        -0.00000000
  17         0.19161630
Sym=     7a  
Ene=    -0.7380
Spin= Alpha
Occup=    2.00000
   1        -0.08214930
   2        -0.06703040
   3         0.16735390
   4        -0.03371965
   5         0.00000000
   6         0.22474966
   7         0.06435882
   8        -0.31379480
   9        -0.42031315
  10        -0.00000000
  11         0.30999651
  12         0.11151308
  13         0.06686616
  14        -0.33972385
  15         0.57658912
  16        -0.00000000
  17        -0.08597150
Sym=     8a  
Ene=    -0.7276
Spin= Alpha
Occup=    2.00000
   1        -0.18812926
   2         0.01345639
   3        -0.03924677
   4         0.26576396
   5        -0.00000000
   6         0.19896115
   7         0.00066268
   8        -0.01116036
   9        -0.39796040
  10        -0.00000000
  11        -0.43496272
  12        -0.20002213
  13        -0.03483093
  14         0.18164633
  15        -0.00306862
  16        -0.00000000
  17         0.47812608
Sym=     9a  
Ene=    -0.6909
Spin= Alpha
Occup=    2.00000
   1        -0.00000000
   2         0.00000000
   3        -0.00000000
   4         0.00000000
   5         0.36249107
   6         0.00000000
   7         0.00000000
   8        -0.00000000
   9        -0.00000000
  10         0.50979882
  11        -0.00000000
  12        -0.00000000
  13        -0.00000000
  14         0.00000000
  15        -0.00000000
  16         0.66442586
  17         0.00000000
Sym=    10a  
Ene=    -0.6346
Spin= Alpha
Occup=    2.00000
   1        -0.21252699
   2         0.00353224
   3        -0.05350793
   4        -0.13936298
   5         0.00000000
   6         0.17452630
   7        -0.05148740
   8         0.27385024
   9         0.48829199
  10        -0.00000000
  11        -0.45289665
  12        -0.18868568
  13         0.01104685
  14        -0.08679830
  15         0.52838258
  16         0.00000000
  17        -0.18337255
Sym=    11a  
Ene=    -0.6117
Spin= Alpha
Occup=    2.00000
   1         0.00000000
   2         0.00000000
   3         0.00000000
   4         0.00000000
   5         0.00662438
   6        -0.00000000
   7         0.00000000
   8        -0.00000000
   9        -0.00000000
  10        -0.79839951
  11         0.00000000
  12         0.00000000
  13        -0.00000000
  14        -0.00000000
  15        -0.00000000
  16         0.60737986
  17         0.00000000
Sym=    12a  
Ene=    -0.5777
Spin= Alpha
Occup=    2.00000
   1         0.31876712
   2        -0.01731695
   3         0.08835328
   4        -0.01711912
   5        -0.00000000
   6        -0.18462194
   7         0.02504734
   8        -0.12094120
   9         0.35393592
  10        -0.00000000
  11         0.15007753
  12         0.07577523
  13         0.00371420
  14        -0.01138548
  15         0.37659248
  16         0.00000000
  17         0.76089355
Sym=    13a  
Ene=    -0.3553
Spin= Alpha
Occup=    0.00000
   1         0.00000000
   2         0.00000000
   3         0.00000000
   4        -0.00000000
   5        -0.97234980
   6         0.00000000
   7        -0.00000000
   8         0.00000000
   9        -0.00000000
  10         0.36027519
  11        -0.00000000
  12         0.00000000
  13         0.00000000
  14        -0.00000000
  15        -0.00000000
  16         0.48888028
  17         0.00000000
Sym=    14a  
Ene=    -0.2384
Spin= Alpha
Occup=    0.00000
   1        -0.07145042
   2        -0.03043203
   3         0.17635226
   4         0.16869260
   5        -0.00000000
   6         0.10185082
   7         0.12516741
   8        -0.83077101
   9         0.20999200
  10         0.00000000
  11        -0.67896664
  12         1.15091741
  13         0.01047425
  14        -0.05801917
  15        -0.09342728
  16        -0.00000000
  17        -0.06086844
Sym=    15a  
Ene=    -0.2142
Spin= Alpha
Occup=    0.00000
   1        -0.09222089
   2        -0.15585745
   3         0.91466494
   4         0.70033205
   5        -0.00000000
   6         0.54553072
   7         0.07735468
   8        -0.51135367
   9         0.69123198
  10        -0.00000000
  11         0.41567685
  12        -0.34178165
  13         0.03256149
  14        -0.20112903
  15        -0.31483099
  16         0.00000000
  17        -0.06965296
Sym=    16a  
Ene=    -0.1672
Spin= Alpha
Occup=    0.00000
   1         0.81993444
   2         0.16672441
   3        -1.11566095
   4         0.84870469
   5        -0.00000000
   6         0.21018546
   7         0.01341792
   8        -0.11469437
   9         0.05505557
  10        -0.00000000
  11         0.06510589
  12         0.01253868
  13        -0.09754256
  14         0.72721554
  15         0.46422662
  16         0.00000000
  17        -0.49469410
Sym=    17a  
Ene=    -0.1543
Spin= Alpha
Occup=    0.00000
   1        -0.91892925
   2        -0.03115238
   3         0.15239376
   4         0.68737328
   5        -0.00000000
   6        -1.08823720
   7         0.01755275
   8        -0.12620644
   9         0.04359996
  10         0.00000000
  11         0.21590041
  12         0.01928751
  13        -0.07686749
  14         0.63214917
  15         0.49201704
  16         0.00000000
  17        -0.20632303
