[Molden Format]
[N_Atoms]
                    5
[Atoms] (AU)
H1          1      1           0.00000000      0.00000000      0.00000000
C1          2      6           0.00000000      0.00000000      2.07302956
O1          3      8           2.36933580      0.00000000      2.98253236
H2          4      1           2.21883002      0.00000000      4.81316966
O2          5      8          -1.88089831      0.00000000      3.34649345
[Charge] (Mulliken)
   7.0438889527415838E-002
  0.26817813729479845     
 -0.29788118432390576     
  0.22169910023710959     
 -0.26243494273546730     
[GTO] (AU)
   1
   s   3
  3.425250914E+00  1.543289673E-01
  6.239137298E-01  5.353281423E-01
  1.688554040E-01  4.446345422E-01
 
   2
   s   3
  7.161683735E+01  1.543289673E-01
  1.304509632E+01  5.353281423E-01
  3.530512160E+00  4.446345422E-01
   s   3
  2.941249355E+00 -9.996722919E-02
  6.834830964E-01  3.995128261E-01
  2.222899159E-01  7.001154689E-01
   p   3
  2.941249355E+00  1.559162750E-01
  6.834830964E-01  6.076837186E-01
  2.222899159E-01  3.919573931E-01
 
   3
   s   3
  1.307093214E+02  1.543289673E-01
  2.380886605E+01  5.353281423E-01
  6.443608313E+00  4.446345422E-01
   s   3
  5.033151319E+00 -9.996722919E-02
  1.169596125E+00  3.995128261E-01
  3.803889600E-01  7.001154689E-01
   p   3
  5.033151319E+00  1.559162750E-01
  1.169596125E+00  6.076837186E-01
  3.803889600E-01  3.919573931E-01
 
   4
   s   3
  3.425250914E+00  1.543289673E-01
  6.239137298E-01  5.353281423E-01
  1.688554040E-01  4.446345422E-01
 
   5
   s   3
  1.307093214E+02  1.543289673E-01
  2.380886605E+01  5.353281423E-01
  6.443608313E+00  4.446345422E-01
   s   3
  5.033151319E+00 -9.996722919E-02
  1.169596125E+00  3.995128261E-01
  3.803889600E-01  7.001154689E-01
   p   3
  5.033151319E+00  1.559162750E-01
  1.169596125E+00  6.076837186E-01
  3.803889600E-01  3.919573931E-01
 
[MO]
Sym=     1a  
Ene=   -20.3240
Spin= Alpha
Occup=    0.00000
   1         0.00027904
   2         0.00049971
   3        -0.00491007
   4        -0.00452259
   5        -0.00000000
   6        -0.00168190
   7         0.99408821
   8         0.02676446
   9        -0.00393739
  10         0.00000000
  11         0.00197020
  12        -0.00580978
  13         0.00077577
  14         0.00023101
  15         0.00041701
  16         0.00000000
  17         0.00046654
Sym=     2a  
Ene=   -20.2740
Spin= Alpha
Occup=    0.00000
   1         0.00016382
   2         0.00052374
   3        -0.00754098
   4         0.00542552
   5        -0.00000000
   6        -0.00377744
   7        -0.00084967
   8         0.00026334
   9        -0.00030178
  10        -0.00000000
  11         0.00045028
  12        -0.00010333
  13         0.99421639
  14         0.02646092
  15         0.00495882
  16        -0.00000000
  17        -0.00329536
Sym=     3a  
Ene=   -11.1840
Spin= Alpha
Occup=    0.00000
   1        -0.00653771
   2         0.99272570
   3         0.03181655
   4        -0.00017652
   5        -0.00000000
   6         0.00026922
   7         0.00030762
   8        -0.00441154
   9         0.00225115
  10        -0.00000000
  11         0.00122936
  12        -0.00152481
  13         0.00007436
  14        -0.00557490
  15        -0.00119648
  16         0.00000000
  17         0.00070632
Sym=     4a  
Ene=    -1.4004
Spin= Alpha
Occup=    0.00000
   1        -0.03246169
   2         0.13229949
   3        -0.29920459
   4         0.00228483
   5        -0.00000000
   6        -0.09175638
   7         0.16343326
   8        -0.57478328
   9         0.11164517
  10         0.00000000
  11        -0.03258449
  12        -0.08794383
  13         0.13333216
  14        -0.45376843
  15        -0.10981439
  16         0.00000000
  17         0.05967413
Sym=     5a  
Ene=    -1.2954
Spin= Alpha
Occup=    0.00000
   1        -0.01040067
   2         0.04303159
   3        -0.09523959
   4         0.20931876
   5         0.00000000
   6        -0.05000637
   7        -0.15941525
   8         0.57646628
   9        -0.05767073
  10        -0.00000000
  11         0.04284385
  12         0.10225391
  13         0.17438565
  14        -0.61078088
  15        -0.09893535
  16        -0.00000000
  17         0.07452352
Sym=     6a  
Ene=    -0.8100
Spin= Alpha
Occup=    0.00000
   1         0.28185607
   2        -0.15721150
   3         0.50899155
   4         0.13160381
   5        -0.00000000
   6        -0.22493481
   7         0.03792670
   8        -0.16373944
   9        -0.17794105
  10        -0.00000000
  11        -0.31303415
  12        -0.25805306
  13         0.06925165
  14        -0.29325808
  15         0.05320028
  16        -0.00000000
  17        -0.11509586
Sym=     7a  
Ene=    -0.6395
Spin= Alpha
Occup=    0.00000
   1        -0.26815456
   2        -0.01045599
   3         0.05409947
   4         0.28525060
   5         0.00000000
   6         0.43134151
   7         0.03648474
   8        -0.18057733
   9        -0.40606508
  10         0.00000000
  11        -0.19199873
  12        -0.20674306
  13         0.00456138
  14        -0.02174180
  15         0.22431223
  16        -0.00000000
  17         0.28898039
Sym=     8a  
Ene=    -0.5996
Spin= Alpha
Occup=    0.00000
   1        -0.02858114
   2         0.07850738
   3        -0.25742039
   4         0.23242587
   5        -0.00000000
   6        -0.15752566
   7        -0.06345420
   8         0.30853833
   9         0.18477918
  10         0.00000000
  11        -0.40726050
  12        -0.25965178
  13        -0.10844624
  14         0.54879371
  15        -0.42549077
  16         0.00000000
  17         0.23295437
Sym=     9a  
Ene=    -0.5494
Spin= Alpha
Occup=    0.00000
   1        -0.00000000
   2        -0.00000000
   3         0.00000000
   4        -0.00000000
   5         0.51943414
   6        -0.00000000
   7        -0.00000000
   8         0.00000000
   9         0.00000000
  10         0.62500870
  11         0.00000000
  12        -0.00000000
  13         0.00000000
  14        -0.00000000
  15         0.00000000
  16         0.38320376
  17         0.00000000
Sym=    10a  
Ene=    -0.4745
Spin= Alpha
Occup=    0.00000
   1        -0.24450022
   2         0.00252516
   3        -0.01360489
   4        -0.24962853
   5        -0.00000000
   6         0.19318721
   7        -0.07702259
   8         0.40629556
   9         0.43276746
  10        -0.00000000
  11        -0.39614826
  12        -0.28655490
  13         0.04492959
  14        -0.25366918
  15         0.34152850
  16         0.00000000
  17        -0.33723797
Sym=    11a  
Ene=    -0.3649
Spin= Alpha
Occup=    0.00000
   1        -0.00000000
   2        -0.00000000
   3         0.00000000
   4        -0.00000000
   5         0.29064982
   6         0.00000000
   7         0.00000000
   8         0.00000000
   9        -0.00000000
  10        -0.72391739
  11        -0.00000000
  12         0.00000000
  13         0.00000000
  14        -0.00000000
  15        -0.00000000
  16         0.62209624
  17         0.00000000
Sym=    12a  
Ene=    -0.3609
Spin= Alpha
Occup=    0.00000
   1         0.30258834
   2        -0.00730340
   3         0.01064532
   4        -0.02809418
   5         0.00000000
   6        -0.08700037
   7         0.00318027
   8        -0.02126007
   9         0.39980410
  10        -0.00000000
  11        -0.00266419
  12         0.05888912
  13         0.00332989
  14        -0.01364984
  15         0.50868309
  16        -0.00000000
  17         0.71817753
Sym=    13a  
Ene=     0.3074
Spin= Alpha
Occup=    0.00000
   1        -0.00000000
   2        -0.00000000
   3         0.00000000
   4        -0.00000000
   5        -0.85006979
   6         0.00000000
   7        -0.00000000
   8        -0.00000000
   9        -0.00000000
  10         0.33532457
  11        -0.00000000
  12         0.00000000
  13         0.00000000
  14        -0.00000000
  15         0.00000000
  16         0.71800217
  17         0.00000000
Sym=    14a  
Ene=     0.5678
Spin= Alpha
Occup=    0.00000
   1         0.56406388
   2         0.10425177
   3        -0.60508645
   4        -0.30144652
   5        -0.00000000
   6         0.17859468
   7        -0.11909820
   8         0.78117499
   9        -0.35380314
  10         0.00000000
  11         0.54924510
  12        -0.96533073
  13        -0.01039170
  14         0.04008917
  15         0.08160104
  16         0.00000000
  17         0.02889501
Sym=    15a  
Ene=     0.6755
Spin= Alpha
Occup=    0.00000
   1         0.93089918
   2         0.18081661
   3        -1.13322176
   4         0.02699527
   5         0.00000000
   6         0.39897223
   7         0.01055450
   8        -0.08950494
   9        -0.25874000
  10         0.00000000
  11        -0.57785954
  12         0.57209914
  13        -0.03976575
  14         0.25862533
  15         0.22798911
  16         0.00000000
  17        -0.29685267
Sym=    16a  
Ene=     0.7308
Spin= Alpha
Occup=    0.00000
   1         0.56099553
   2        -0.06102833
   3         0.32086554
   4         0.63598403
   5        -0.00000000
   6         0.89834470
   7         0.06467699
   8        -0.42857460
   9         0.67756943
  10         0.00000000
  11         0.31668765
  12        -0.21848277
  13         0.01851014
  14        -0.12468550
  15        -0.31882596
  16         0.00000000
  17        -0.20245134
Sym=    17a  
Ene=     0.9745
Spin= Alpha
Occup=    0.00000
   1        -0.22302405
   2         0.06838282
   3        -0.50925110
   4         1.04325280
   5        -0.00000000
   6        -0.66537331
   7         0.01465595
   8        -0.10794917
   9         0.11119117
  10        -0.00000000
  11         0.34520101
  12        -0.13841254
  13        -0.11243623
  14         0.86257248
  15         0.73366400
  16         0.00000000
  17        -0.51447221
