[Molden Format]
[N_Atoms]
                    5
[Atoms] (AU)
H1          1      1           0.00000000      0.00000000      0.00000000
C1          2      6           0.00000000      0.00000000      2.07302956
O1          3      8           2.36933580      0.00000000      2.98253236
H2          4      1           2.21883002      0.00000000      4.81316966
O2          5      8          -1.88089831      0.00000000      3.34649345
[Charge] (Mulliken)
   7.0438587597221769E-002
  0.26817872147649702     
 -0.29788218952434775     
  0.22169988337626034     
 -0.26243500292579469     
[GTO] (AU)
   1
   s   3
  3.425250914E+00  1.543289673E-01
  6.239137298E-01  5.353281423E-01
  1.688554040E-01  4.446345422E-01
 
   2
   s   3
  7.161683735E+01  1.543289673E-01
  1.304509632E+01  5.353281423E-01
  3.530512160E+00  4.446345422E-01
   s   3
  2.941249355E+00 -9.996722919E-02
  6.834830964E-01  3.995128261E-01
  2.222899159E-01  7.001154689E-01
   p   3
  2.941249355E+00  1.559162750E-01
  6.834830964E-01  6.076837186E-01
  2.222899159E-01  3.919573931E-01
 
   3
   s   3
  1.307093214E+02  1.543289673E-01
  2.380886605E+01  5.353281423E-01
  6.443608313E+00  4.446345422E-01
   s   3
  5.033151319E+00 -9.996722919E-02
  1.169596125E+00  3.995128261E-01
  3.803889600E-01  7.001154689E-01
   p   3
  5.033151319E+00  1.559162750E-01
  1.169596125E+00  6.076837186E-01
  3.803889600E-01  3.919573931E-01
 
   4
   s   3
  3.425250914E+00  1.543289673E-01
  6.239137298E-01  5.353281423E-01
  1.688554040E-01  4.446345422E-01
 
   5
   s   3
  1.307093214E+02  1.543289673E-01
  2.380886605E+01  5.353281423E-01
  6.443608313E+00  4.446345422E-01
   s   3
  5.033151319E+00 -9.996722919E-02
  1.169596125E+00  3.995128261E-01
  3.803889600E-01  7.001154689E-01
   p   3
  5.033151319E+00  1.559162750E-01
  1.169596125E+00  6.076837186E-01
  3.803889600E-01  3.919573931E-01
 
[MO]
Sym=     1a  
Ene=   -20.3240
Spin= Alpha
Occup=    1.00000
   1         0.00027904
   2         0.00049970
   3        -0.00491007
   4        -0.00452258
   5        -0.00000000
   6        -0.00168190
   7         0.99408821
   8         0.02676447
   9        -0.00393739
  10         0.00000000
  11         0.00197021
  12        -0.00580977
  13         0.00077580
  14         0.00023101
  15         0.00041701
  16         0.00000000
  17         0.00046654
Sym=     1a  
Ene=   -20.3240
Spin= Beta
Occup=    1.00000
   1         0.00027904
   2         0.00049970
   3        -0.00491007
   4        -0.00452258
   5        -0.00000000
   6        -0.00168190
   7         0.99408821
   8         0.02676447
   9        -0.00393739
  10         0.00000000
  11         0.00197021
  12        -0.00580977
  13         0.00077580
  14         0.00023101
  15         0.00041701
  16         0.00000000
  17         0.00046654
Sym=     2a  
Ene=   -20.2740
Spin= Alpha
Occup=    1.00000
   1        -0.00016382
   2        -0.00052374
   3         0.00754098
   4        -0.00542552
   5         0.00000000
   6         0.00377744
   7         0.00084969
   8        -0.00026334
   9         0.00030178
  10         0.00000000
  11        -0.00045028
  12         0.00010333
  13        -0.99421639
  14        -0.02646092
  15        -0.00495882
  16         0.00000000
  17         0.00329536
Sym=     2a  
Ene=   -20.2740
Spin= Beta
Occup=    1.00000
   1        -0.00016382
   2        -0.00052374
   3         0.00754098
   4        -0.00542552
   5         0.00000000
   6         0.00377744
   7         0.00084969
   8        -0.00026334
   9         0.00030178
  10         0.00000000
  11        -0.00045028
  12         0.00010333
  13        -0.99421639
  14        -0.02646092
  15        -0.00495882
  16         0.00000000
  17         0.00329536
Sym=     3a  
Ene=   -11.1840
Spin= Alpha
Occup=    1.00000
   1        -0.00653772
   2         0.99272570
   3         0.03181654
   4        -0.00017652
   5        -0.00000000
   6         0.00026921
   7         0.00030762
   8        -0.00441155
   9         0.00225116
  10        -0.00000000
  11         0.00122936
  12        -0.00152481
  13         0.00007436
  14        -0.00557490
  15        -0.00119648
  16         0.00000000
  17         0.00070632
Sym=     3a  
Ene=   -11.1840
Spin= Beta
Occup=    1.00000
   1        -0.00653772
   2         0.99272570
   3         0.03181654
   4        -0.00017652
   5        -0.00000000
   6         0.00026921
   7         0.00030762
   8        -0.00441155
   9         0.00225116
  10        -0.00000000
  11         0.00122936
  12        -0.00152481
  13         0.00007436
  14        -0.00557490
  15        -0.00119648
  16         0.00000000
  17         0.00070632
Sym=     4a  
Ene=    -1.4004
Spin= Alpha
Occup=    1.00000
   1         0.03246183
   2        -0.13229969
   3         0.29920519
   4        -0.00228518
   5         0.00000000
   6         0.09175652
   7        -0.16343283
   8         0.57478157
   9        -0.11164513
  10        -0.00000000
  11         0.03258458
  12         0.08794367
  13        -0.13333250
  14         0.45376957
  15         0.10981480
  16        -0.00000000
  17        -0.05967431
Sym=     4a  
Ene=    -1.4004
Spin= Beta
Occup=    1.00000
   1         0.03246183
   2        -0.13229969
   3         0.29920519
   4        -0.00228518
   5         0.00000000
   6         0.09175652
   7        -0.16343283
   8         0.57478157
   9        -0.11164513
  10        -0.00000000
  11         0.03258458
  12         0.08794367
  13        -0.13333250
  14         0.45376957
  15         0.10981480
  16        -0.00000000
  17        -0.05967431
Sym=     5a  
Ene=    -1.2954
Spin= Alpha
Occup=    1.00000
   1         0.01040054
   2        -0.04303130
   3         0.09523896
   4        -0.20931892
   5        -0.00000000
   6         0.05000594
   7         0.15941560
   8        -0.57646743
   9         0.05767114
  10         0.00000000
  11        -0.04284412
  12        -0.10225419
  13        -0.17438532
  14         0.61077971
  15         0.09893520
  16         0.00000000
  17        -0.07452357
Sym=     5a  
Ene=    -1.2954
Spin= Beta
Occup=    1.00000
   1         0.01040054
   2        -0.04303130
   3         0.09523896
   4        -0.20931892
   5        -0.00000000
   6         0.05000594
   7         0.15941560
   8        -0.57646743
   9         0.05767114
  10         0.00000000
  11        -0.04284412
  12        -0.10225419
  13        -0.17438532
  14         0.61077971
  15         0.09893520
  16         0.00000000
  17        -0.07452357
Sym=     6a  
Ene=    -0.8100
Spin= Alpha
Occup=    1.00000
   1        -0.28185661
   2         0.15721135
   3        -0.50899105
   4        -0.13160373
   5         0.00000000
   6         0.22493558
   7        -0.03792663
   8         0.16373911
   9         0.17794010
  10         0.00000000
  11         0.31303451
  12         0.25805276
  13        -0.06925161
  14         0.29325774
  15        -0.05319982
  16         0.00000000
  17         0.11509554
Sym=     6a  
Ene=    -0.8100
Spin= Beta
Occup=    1.00000
   1        -0.28185661
   2         0.15721135
   3        -0.50899105
   4        -0.13160373
   5         0.00000000
   6         0.22493558
   7        -0.03792663
   8         0.16373911
   9         0.17794010
  10         0.00000000
  11         0.31303451
  12         0.25805276
  13        -0.06925161
  14         0.29325774
  15        -0.05319982
  16         0.00000000
  17         0.11509554
Sym=     7a  
Ene=    -0.6395
Spin= Alpha
Occup=    1.00000
   1        -0.26815508
   2        -0.01045562
   3         0.05409832
   4         0.28525234
   5         0.00000000
   6         0.43134138
   7         0.03648417
   8        -0.18057456
   9        -0.40606178
  10         0.00000000
  11        -0.19200379
  12        -0.20674611
  13         0.00456077
  14        -0.02173874
  15         0.22430997
  16        -0.00000000
  17         0.28898024
Sym=     7a  
Ene=    -0.6395
Spin= Beta
Occup=    1.00000
   1        -0.26815508
   2        -0.01045562
   3         0.05409832
   4         0.28525234
   5         0.00000000
   6         0.43134138
   7         0.03648417
   8        -0.18057456
   9        -0.40606178
  10         0.00000000
  11        -0.19200379
  12        -0.20674611
  13         0.00456077
  14        -0.02173874
  15         0.22430997
  16        -0.00000000
  17         0.28898024
Sym=     8a  
Ene=    -0.5996
Spin= Alpha
Occup=    1.00000
   1         0.02857946
   2        -0.07850756
   3         0.25742114
   4        -0.23242313
   5         0.00000000
   6         0.15752855
   7         0.06345456
   8        -0.30854001
   9        -0.18478147
  10        -0.00000000
  11         0.40725873
  12         0.25964958
  13         0.10844639
  14        -0.54879419
  15         0.42549357
  16        -0.00000000
  17        -0.23295188
Sym=     8a  
Ene=    -0.5996
Spin= Beta
Occup=    1.00000
   1         0.02857946
   2        -0.07850756
   3         0.25742114
   4        -0.23242313
   5         0.00000000
   6         0.15752855
   7         0.06345456
   8        -0.30854001
   9        -0.18478147
  10        -0.00000000
  11         0.40725873
  12         0.25964958
  13         0.10844639
  14        -0.54879419
  15         0.42549357
  16        -0.00000000
  17        -0.23295188
Sym=     9a  
Ene=    -0.5494
Spin= Alpha
Occup=    1.00000
   1        -0.00000000
   2        -0.00000000
   3         0.00000000
   4        -0.00000000
   5         0.51943330
   6        -0.00000000
   7        -0.00000000
   8         0.00000000
   9         0.00000000
  10         0.62500847
  11         0.00000000
  12        -0.00000000
  13         0.00000000
  14        -0.00000000
  15         0.00000000
  16         0.38320526
  17         0.00000000
Sym=     9a  
Ene=    -0.5494
Spin= Beta
Occup=    1.00000
   1        -0.00000000
   2        -0.00000000
   3         0.00000000
   4        -0.00000000
   5         0.51943330
   6        -0.00000000
   7        -0.00000000
   8         0.00000000
   9         0.00000000
  10         0.62500847
  11         0.00000000
  12        -0.00000000
  13         0.00000000
  14        -0.00000000
  15         0.00000000
  16         0.38320526
  17         0.00000000
Sym=    10a  
Ene=    -0.4745
Spin= Alpha
Occup=    1.00000
   1         0.24450004
   2        -0.00252541
   3         0.01360612
   4         0.24962965
   5         0.00000000
   6        -0.19318515
   7         0.07702292
   8        -0.40629722
   9        -0.43276728
  10         0.00000000
  11         0.39614808
  12         0.28655430
  13        -0.04492948
  14         0.25366850
  15        -0.34152649
  16        -0.00000000
  17         0.33724082
Sym=    10a  
Ene=    -0.4745
Spin= Beta
Occup=    1.00000
   1         0.24450004
   2        -0.00252541
   3         0.01360612
   4         0.24962965
   5         0.00000000
   6        -0.19318515
   7         0.07702292
   8        -0.40629722
   9        -0.43276728
  10         0.00000000
  11         0.39614808
  12         0.28655430
  13        -0.04492948
  14         0.25366850
  15        -0.34152649
  16        -0.00000000
  17         0.33724082
Sym=    11a  
Ene=    -0.3649
Spin= Alpha
Occup=    1.00000
   1        -0.00000000
   2        -0.00000000
   3         0.00000000
   4        -0.00000000
   5         0.29065001
   6         0.00000000
   7         0.00000000
   8         0.00000000
   9        -0.00000000
  10        -0.72391823
  11        -0.00000000
  12         0.00000000
  13         0.00000000
  14        -0.00000000
  15        -0.00000000
  16         0.62209532
  17         0.00000000
Sym=    11a  
Ene=    -0.3649
Spin= Beta
Occup=    1.00000
   1        -0.00000000
   2        -0.00000000
   3         0.00000000
   4        -0.00000000
   5         0.29065001
   6         0.00000000
   7         0.00000000
   8         0.00000000
   9        -0.00000000
  10        -0.72391823
  11        -0.00000000
  12         0.00000000
  13         0.00000000
  14        -0.00000000
  15        -0.00000000
  16         0.62209532
  17         0.00000000
Sym=    12a  
Ene=    -0.3609
Spin= Alpha
Occup=    1.00000
   1        -0.30258818
   2         0.00730308
   3        -0.01064392
   4         0.02809402
   5        -0.00000000
   6         0.08699930
   7        -0.00318002
   8         0.02125877
   9        -0.39980556
  10         0.00000000
  11         0.00266560
  12        -0.05888814
  13        -0.00332981
  14         0.01364940
  15        -0.50868377
  16         0.00000000
  17        -0.71817669
Sym=    12a  
Ene=    -0.3609
Spin= Beta
Occup=    1.00000
   1        -0.30258818
   2         0.00730308
   3        -0.01064392
   4         0.02809402
   5        -0.00000000
   6         0.08699930
   7        -0.00318002
   8         0.02125877
   9        -0.39980556
  10         0.00000000
  11         0.00266560
  12        -0.05888814
  13        -0.00332981
  14         0.01364940
  15        -0.50868377
  16         0.00000000
  17        -0.71817669
Sym=    13a  
Ene=     0.3074
Spin= Alpha
Occup=    0.00000
   1        -0.00000000
   2        -0.00000000
   3         0.00000000
   4        -0.00000000
   5        -0.85007024
   6         0.00000000
   7        -0.00000000
   8        -0.00000000
   9        -0.00000000
  10         0.33532318
  11        -0.00000000
  12         0.00000000
  13         0.00000000
  14        -0.00000000
  15         0.00000000
  16         0.71800216
  17         0.00000000
Sym=    13a  
Ene=     0.3074
Spin= Beta
Occup=    0.00000
   1        -0.00000000
   2        -0.00000000
   3         0.00000000
   4        -0.00000000
   5        -0.85007024
   6         0.00000000
   7        -0.00000000
   8        -0.00000000
   9        -0.00000000
  10         0.33532318
  11        -0.00000000
  12         0.00000000
  13         0.00000000
  14        -0.00000000
  15         0.00000000
  16         0.71800216
  17         0.00000000
Sym=    14a  
Ene=     0.5678
Spin= Alpha
Occup=    0.00000
   1        -0.56406486
   2        -0.10425163
   3         0.60508580
   4         0.30144543
   5         0.00000000
   6        -0.17859646
   7         0.11909806
   8        -0.78117412
   9         0.35380244
  10        -0.00000000
  11        -0.54924546
  12         0.96533110
  13         0.01039167
  14        -0.04008890
  15        -0.08160035
  16        -0.00000000
  17        -0.02889479
Sym=    14a  
Ene=     0.5678
Spin= Beta
Occup=    0.00000
   1        -0.56406486
   2        -0.10425163
   3         0.60508580
   4         0.30144543
   5         0.00000000
   6        -0.17859646
   7         0.11909806
   8        -0.78117412
   9         0.35380244
  10        -0.00000000
  11        -0.54924546
  12         0.96533110
  13         0.01039167
  14        -0.04008890
  15        -0.08160035
  16        -0.00000000
  17        -0.02889479
Sym=    15a  
Ene=     0.6755
Spin= Alpha
Occup=    0.00000
   1        -0.93090210
   2        -0.18081626
   3         1.13321983
   4        -0.02699809
   5        -0.00000000
   6        -0.39897718
   7        -0.01055486
   8         0.08950728
   9         0.25873679
  10        -0.00000000
  11         0.57785783
  12        -0.57209835
  13         0.03976562
  14        -0.25862437
  15        -0.22798666
  16        -0.00000000
  17         0.29685382
Sym=    15a  
Ene=     0.6755
Spin= Beta
Occup=    0.00000
   1        -0.93090210
   2        -0.18081626
   3         1.13321983
   4        -0.02699809
   5        -0.00000000
   6        -0.39897718
   7        -0.01055486
   8         0.08950728
   9         0.25873679
  10        -0.00000000
  11         0.57785783
  12        -0.57209835
  13         0.03976562
  14        -0.25862437
  15        -0.22798666
  16        -0.00000000
  17         0.29685382
Sym=    16a  
Ene=     0.7308
Spin= Alpha
Occup=    0.00000
   1         0.56098958
   2        -0.06102940
   3         0.32087225
   4         0.63598420
   5        -0.00000000
   6         0.89834202
   7         0.06467707
   8        -0.42857507
   9         0.67757191
  10         0.00000000
  11         0.31668957
  12        -0.21848433
  13         0.01851034
  14        -0.12468682
  15        -0.31882737
  16         0.00000000
  17        -0.20245067
Sym=    16a  
Ene=     0.7308
Spin= Beta
Occup=    0.00000
   1         0.56098958
   2        -0.06102940
   3         0.32087225
   4         0.63598420
   5        -0.00000000
   6         0.89834202
   7         0.06467707
   8        -0.42857507
   9         0.67757191
  10         0.00000000
  11         0.31668957
  12        -0.21848433
  13         0.01851034
  14        -0.12468682
  15        -0.31882737
  16         0.00000000
  17        -0.20245067
Sym=    17a  
Ene=     0.9745
Spin= Alpha
Occup=    0.00000
   1        -0.22302361
   2         0.06838299
   3        -0.50925196
   4         1.04325279
   5        -0.00000000
   6        -0.66537337
   7         0.01465591
   8        -0.10794892
   9         0.11119081
  10        -0.00000000
  11         0.34520064
  12        -0.13841245
  13        -0.11243630
  14         0.86257291
  15         0.73366375
  16         0.00000000
  17        -0.51447239
Sym=    17a  
Ene=     0.9745
Spin= Beta
Occup=    0.00000
   1        -0.22302361
   2         0.06838299
   3        -0.50925196
   4         1.04325279
   5        -0.00000000
   6        -0.66537337
   7         0.01465591
   8        -0.10794892
   9         0.11119081
  10        -0.00000000
  11         0.34520064
  12        -0.13841245
  13        -0.11243630
  14         0.86257291
  15         0.73366375
  16         0.00000000
  17        -0.51447239
