### Running on host: fes33

     Program PWSCF v.6.7MaX starts on  2Apr2024 at 20:15:36 

     This program is part of the open-source Quantum ESPRESSO suite
     for quantum simulation of materials; please cite
         "P. Giannozzi et al., J. Phys.:Condens. Matter 21 395502 (2009);
         "P. Giannozzi et al., J. Phys.:Condens. Matter 29 465901 (2017);
          URL http://www.quantum-espresso.org", 
     in publications or presentations arising from this work. More details at
     http://www.quantum-espresso.org/quote

     Parallel version (MPI), running on     2 processors

     MPI processes distributed on     1 nodes
     R & G space division:  proc/nbgrp/npool/nimage =       2
     Reading input from pwscf_ecutrho-400.in

     Current dimensions of program PWSCF are:
     Max number of different atomic species (ntypx) = 10
     Max number of k-points (npk) =  40000
     Max angular momentum in pseudopotentials (lmaxx) =  3
     file Pb.pbe-dn-kjpaw_psl.0.2.2.UPF: wavefunction(s)  6S renormalized

     Subspace diagonalization in iterative solution of the eigenvalue problem:
     a serial algorithm will be used

     Found symmetry operation: I + (  0.0000  0.0000  0.5000)
     This is a supercell, fractional translations are disabled
     Message from routine setup:
     using ibrav=0 with symmetry is DISCOURAGED, use correct ibrav instead

     Parallelization info
     --------------------
     sticks:   dense  smooth     PW     G-vecs:    dense   smooth      PW
     Min        9252    3707    969               948162   239884   32114
     Max        9253    3710    972               948167   239885   32115
     Sum       18505    7417   1941              1896329   479769   64229



     bravais-lattice index     =            0
     lattice parameter (alat)  =      24.1188  a.u.
     unit-cell volume          =   14030.3801 (a.u.)^3
     number of atoms/cell      =           40
     number of atomic types    =            3
     number of electrons       =       352.00
     number of Kohn-Sham states=          211
     kinetic-energy cutoff     =      40.0000  Ry
     charge density cutoff     =     400.0000  Ry
     scf convergence threshold =      8.0E-09
     mixing beta               =       0.4000
     number of iterations used =            8  plain     mixing
     Exchange-correlation= SLA  PW   PBX  PBC
                           (   1   4   3   4   0   0   0)

     celldm(1)=  24.118843  celldm(2)=   0.000000  celldm(3)=   0.000000
     celldm(4)=   0.000000  celldm(5)=   0.000000  celldm(6)=   0.000000

     crystal axes: (cart. coord. in units of alat)
               a(1) = (   1.000000   0.000000   0.000000 )  
               a(2) = (   0.000000   1.000000   0.000000 )  
               a(3) = (   0.000000   0.000000   1.000000 )  

     reciprocal axes: (cart. coord. in units 2 pi/alat)
               b(1) = (  1.000000  0.000000  0.000000 )  
               b(2) = (  0.000000  1.000000  0.000000 )  
               b(3) = (  0.000000  0.000000  1.000000 )  


     PseudoPot. # 1 for Cs read from file:
     ../../pseudo/Cs_pbe_v1.uspp.F.UPF
     MD5 check sum: 3476d69cb178dfad3ffaa59df4e07ca4
     Pseudo is Ultrasoft + core correction, Zval =  9.0
     Generated by new atomic code, or converted to UPF format
     Using radial grid of  905 points,  6 beta functions with: 
                l(1) =   0
                l(2) =   0
                l(3) =   1
                l(4) =   1
                l(5) =   2
                l(6) =   2
     Q(r) pseudized with  6 coefficients,  rinner =    1.500   1.500   1.500
                                                       1.500   1.500

     PseudoPot. # 2 for I  read from file:
     ../../pseudo/I.pbe-n-kjpaw_psl.0.2.UPF
     MD5 check sum: d4ef18d9c8f18dc85e5843bca1e50dc0
     Pseudo is Projector augmented-wave + core cor, Zval =  7.0
     Generated using "atomic" code by A. Dal Corso  v.5.0.99 svn rev. 10869
     Shape of augmentation charge: PSQ
     Using radial grid of 1247 points,  4 beta functions with: 
                l(1) =   0
                l(2) =   0
                l(3) =   1
                l(4) =   1
     Q(r) pseudized with 0 coefficients 


     PseudoPot. # 3 for Pb read from file:
     ../../pseudo/Pb.pbe-dn-kjpaw_psl.0.2.2.UPF
     MD5 check sum: 9d431e6316058b74ade52399a6cf67da
     Pseudo is Projector augmented-wave + core cor, Zval = 14.0
     Generated using "atomic" code by A. Dal Corso  v.5.0.99 svn rev. 10869
     Shape of augmentation charge: PSQ
     Using radial grid of 1281 points,  6 beta functions with: 
                l(1) =   0
                l(2) =   0
                l(3) =   1
                l(4) =   1
                l(5) =   2
                l(6) =   2
     Q(r) pseudized with 0 coefficients 


     atomic species   valence    mass     pseudopotential
        Cs             9.00   132.90545     Cs( 1.00)
        I              7.00   126.90447     I ( 1.00)
        Pb            14.00   207.20000     Pb( 1.00)

     48 Sym. Ops., with inversion, found


                                    s                        frac. trans.

      isym =  1     identity                                     

 cryst.   s( 1) = (     1          0          0      )
                  (     0          1          0      )
                  (     0          0          1      )

 cart.    s( 1) = (  1.0000000  0.0000000  0.0000000 )
                  (  0.0000000  1.0000000  0.0000000 )
                  (  0.0000000  0.0000000  1.0000000 )


      isym =  2     180 deg rotation - cart. axis [0,0,1]        

 cryst.   s( 2) = (    -1          0          0      )
                  (     0         -1          0      )
                  (     0          0          1      )

 cart.    s( 2) = ( -1.0000000  0.0000000  0.0000000 )
                  (  0.0000000 -1.0000000  0.0000000 )
                  (  0.0000000  0.0000000  1.0000000 )


      isym =  3     180 deg rotation - cart. axis [0,1,0]        

 cryst.   s( 3) = (    -1          0          0      )
                  (     0          1          0      )
                  (     0          0         -1      )

 cart.    s( 3) = ( -1.0000000  0.0000000  0.0000000 )
                  (  0.0000000  1.0000000  0.0000000 )
                  (  0.0000000  0.0000000 -1.0000000 )


      isym =  4     180 deg rotation - cart. axis [1,0,0]        

 cryst.   s( 4) = (     1          0          0      )
                  (     0         -1          0      )
                  (     0          0         -1      )

 cart.    s( 4) = (  1.0000000  0.0000000  0.0000000 )
                  (  0.0000000 -1.0000000  0.0000000 )
                  (  0.0000000  0.0000000 -1.0000000 )


      isym =  5     180 deg rotation - cart. axis [1,1,0]        

 cryst.   s( 5) = (     0          1          0      )
                  (     1          0          0      )
                  (     0          0         -1      )

 cart.    s( 5) = (  0.0000000  1.0000000  0.0000000 )
                  (  1.0000000  0.0000000  0.0000000 )
                  (  0.0000000  0.0000000 -1.0000000 )


      isym =  6     180 deg rotation - cart. axis [1,-1,0]       

 cryst.   s( 6) = (     0         -1          0      )
                  (    -1          0          0      )
                  (     0          0         -1      )

 cart.    s( 6) = (  0.0000000 -1.0000000  0.0000000 )
                  ( -1.0000000  0.0000000  0.0000000 )
                  (  0.0000000  0.0000000 -1.0000000 )


      isym =  7      90 deg rotation - cart. axis [0,0,-1]       

 cryst.   s( 7) = (     0         -1          0      )
                  (     1          0          0      )
                  (     0          0          1      )

 cart.    s( 7) = (  0.0000000  1.0000000  0.0000000 )
                  ( -1.0000000  0.0000000  0.0000000 )
                  (  0.0000000  0.0000000  1.0000000 )


      isym =  8      90 deg rotation - cart. axis [0,0,1]        

 cryst.   s( 8) = (     0          1          0      )
                  (    -1          0          0      )
                  (     0          0          1      )

 cart.    s( 8) = (  0.0000000 -1.0000000  0.0000000 )
                  (  1.0000000  0.0000000  0.0000000 )
                  (  0.0000000  0.0000000  1.0000000 )


      isym =  9     180 deg rotation - cart. axis [1,0,1]        

 cryst.   s( 9) = (     0          0          1      )
                  (     0         -1          0      )
                  (     1          0          0      )

 cart.    s( 9) = (  0.0000000  0.0000000  1.0000000 )
                  (  0.0000000 -1.0000000  0.0000000 )
                  (  1.0000000  0.0000000  0.0000000 )


      isym = 10     180 deg rotation - cart. axis [-1,0,1]       

 cryst.   s(10) = (     0          0         -1      )
                  (     0         -1          0      )
                  (    -1          0          0      )

 cart.    s(10) = (  0.0000000  0.0000000 -1.0000000 )
                  (  0.0000000 -1.0000000  0.0000000 )
                  ( -1.0000000  0.0000000  0.0000000 )


      isym = 11      90 deg rotation - cart. axis [0,1,0]        

 cryst.   s(11) = (     0          0         -1      )
                  (     0          1          0      )
                  (     1          0          0      )

 cart.    s(11) = (  0.0000000  0.0000000  1.0000000 )
                  (  0.0000000  1.0000000  0.0000000 )
                  ( -1.0000000  0.0000000  0.0000000 )


      isym = 12      90 deg rotation - cart. axis [0,-1,0]       

 cryst.   s(12) = (     0          0          1      )
                  (     0          1          0      )
                  (    -1          0          0      )

 cart.    s(12) = (  0.0000000  0.0000000 -1.0000000 )
                  (  0.0000000  1.0000000  0.0000000 )
                  (  1.0000000  0.0000000  0.0000000 )


      isym = 13     180 deg rotation - cart. axis [0,1,1]        

 cryst.   s(13) = (    -1          0          0      )
                  (     0          0          1      )
                  (     0          1          0      )

 cart.    s(13) = ( -1.0000000  0.0000000  0.0000000 )
                  (  0.0000000  0.0000000  1.0000000 )
                  (  0.0000000  1.0000000  0.0000000 )


      isym = 14     180 deg rotation - cart. axis [0,1,-1]       

 cryst.   s(14) = (    -1          0          0      )
                  (     0          0         -1      )
                  (     0         -1          0      )

 cart.    s(14) = ( -1.0000000  0.0000000  0.0000000 )
                  (  0.0000000  0.0000000 -1.0000000 )
                  (  0.0000000 -1.0000000  0.0000000 )


      isym = 15      90 deg rotation - cart. axis [-1,0,0]       

 cryst.   s(15) = (     1          0          0      )
                  (     0          0         -1      )
                  (     0          1          0      )

 cart.    s(15) = (  1.0000000  0.0000000  0.0000000 )
                  (  0.0000000  0.0000000  1.0000000 )
                  (  0.0000000 -1.0000000  0.0000000 )


      isym = 16      90 deg rotation - cart. axis [1,0,0]        

 cryst.   s(16) = (     1          0          0      )
                  (     0          0          1      )
                  (     0         -1          0      )

 cart.    s(16) = (  1.0000000  0.0000000  0.0000000 )
                  (  0.0000000  0.0000000 -1.0000000 )
                  (  0.0000000  1.0000000  0.0000000 )


      isym = 17     120 deg rotation - cart. axis [-1,-1,-1]     

 cryst.   s(17) = (     0          0          1      )
                  (     1          0          0      )
                  (     0          1          0      )

 cart.    s(17) = (  0.0000000  1.0000000  0.0000000 )
                  (  0.0000000  0.0000000  1.0000000 )
                  (  1.0000000  0.0000000  0.0000000 )


      isym = 18     120 deg rotation - cart. axis [-1,1,1]       

 cryst.   s(18) = (     0          0         -1      )
                  (    -1          0          0      )
                  (     0          1          0      )

 cart.    s(18) = (  0.0000000 -1.0000000  0.0000000 )
                  (  0.0000000  0.0000000  1.0000000 )
                  ( -1.0000000  0.0000000  0.0000000 )


      isym = 19     120 deg rotation - cart. axis [1,1,-1]       

 cryst.   s(19) = (     0          0         -1      )
                  (     1          0          0      )
                  (     0         -1          0      )

 cart.    s(19) = (  0.0000000  1.0000000  0.0000000 )
                  (  0.0000000  0.0000000 -1.0000000 )
                  ( -1.0000000  0.0000000  0.0000000 )


      isym = 20     120 deg rotation - cart. axis [1,-1,1]       

 cryst.   s(20) = (     0          0          1      )
                  (    -1          0          0      )
                  (     0         -1          0      )

 cart.    s(20) = (  0.0000000 -1.0000000  0.0000000 )
                  (  0.0000000  0.0000000 -1.0000000 )
                  (  1.0000000  0.0000000  0.0000000 )


      isym = 21     120 deg rotation - cart. axis [1,1,1]        

 cryst.   s(21) = (     0          1          0      )
                  (     0          0          1      )
                  (     1          0          0      )

 cart.    s(21) = (  0.0000000  0.0000000  1.0000000 )
                  (  1.0000000  0.0000000  0.0000000 )
                  (  0.0000000  1.0000000  0.0000000 )


      isym = 22     120 deg rotation - cart. axis [-1,1,-1]      

 cryst.   s(22) = (     0         -1          0      )
                  (     0          0         -1      )
                  (     1          0          0      )

 cart.    s(22) = (  0.0000000  0.0000000  1.0000000 )
                  ( -1.0000000  0.0000000  0.0000000 )
                  (  0.0000000 -1.0000000  0.0000000 )


      isym = 23     120 deg rotation - cart. axis [1,-1,-1]      

 cryst.   s(23) = (     0         -1          0      )
                  (     0          0          1      )
                  (    -1          0          0      )

 cart.    s(23) = (  0.0000000  0.0000000 -1.0000000 )
                  ( -1.0000000  0.0000000  0.0000000 )
                  (  0.0000000  1.0000000  0.0000000 )


      isym = 24     120 deg rotation - cart. axis [-1,-1,1]      

 cryst.   s(24) = (     0          1          0      )
                  (     0          0         -1      )
                  (    -1          0          0      )

 cart.    s(24) = (  0.0000000  0.0000000 -1.0000000 )
                  (  1.0000000  0.0000000  0.0000000 )
                  (  0.0000000 -1.0000000  0.0000000 )


      isym = 25     inversion                                    

 cryst.   s(25) = (    -1          0          0      )
                  (     0         -1          0      )
                  (     0          0         -1      )

 cart.    s(25) = ( -1.0000000  0.0000000  0.0000000 )
                  (  0.0000000 -1.0000000  0.0000000 )
                  (  0.0000000  0.0000000 -1.0000000 )


      isym = 26     inv. 180 deg rotation - cart. axis [0,0,1]   

 cryst.   s(26) = (     1          0          0      )
                  (     0          1          0      )
                  (     0          0         -1      )

 cart.    s(26) = (  1.0000000  0.0000000  0.0000000 )
                  (  0.0000000  1.0000000  0.0000000 )
                  (  0.0000000  0.0000000 -1.0000000 )


      isym = 27     inv. 180 deg rotation - cart. axis [0,1,0]   

 cryst.   s(27) = (     1          0          0      )
                  (     0         -1          0      )
                  (     0          0          1      )

 cart.    s(27) = (  1.0000000  0.0000000  0.0000000 )
                  (  0.0000000 -1.0000000  0.0000000 )
                  (  0.0000000  0.0000000  1.0000000 )


      isym = 28     inv. 180 deg rotation - cart. axis [1,0,0]   

 cryst.   s(28) = (    -1          0          0      )
                  (     0          1          0      )
                  (     0          0          1      )

 cart.    s(28) = ( -1.0000000  0.0000000  0.0000000 )
                  (  0.0000000  1.0000000  0.0000000 )
                  (  0.0000000  0.0000000  1.0000000 )


      isym = 29     inv. 180 deg rotation - cart. axis [1,1,0]   

 cryst.   s(29) = (     0         -1          0      )
                  (    -1          0          0      )
                  (     0          0          1      )

 cart.    s(29) = (  0.0000000 -1.0000000  0.0000000 )
                  ( -1.0000000  0.0000000  0.0000000 )
                  (  0.0000000  0.0000000  1.0000000 )


      isym = 30     inv. 180 deg rotation - cart. axis [1,-1,0]  

 cryst.   s(30) = (     0          1          0      )
                  (     1          0          0      )
                  (     0          0          1      )

 cart.    s(30) = (  0.0000000  1.0000000  0.0000000 )
                  (  1.0000000  0.0000000  0.0000000 )
                  (  0.0000000  0.0000000  1.0000000 )


      isym = 31     inv.  90 deg rotation - cart. axis [0,0,-1]  

 cryst.   s(31) = (     0          1          0      )
                  (    -1          0          0      )
                  (     0          0         -1      )

 cart.    s(31) = (  0.0000000 -1.0000000  0.0000000 )
                  (  1.0000000  0.0000000  0.0000000 )
                  (  0.0000000  0.0000000 -1.0000000 )


      isym = 32     inv.  90 deg rotation - cart. axis [0,0,1]   

 cryst.   s(32) = (     0         -1          0      )
                  (     1          0          0      )
                  (     0          0         -1      )

 cart.    s(32) = (  0.0000000  1.0000000  0.0000000 )
                  ( -1.0000000  0.0000000  0.0000000 )
                  (  0.0000000  0.0000000 -1.0000000 )


      isym = 33     inv. 180 deg rotation - cart. axis [1,0,1]   

 cryst.   s(33) = (     0          0         -1      )
                  (     0          1          0      )
                  (    -1          0          0      )

 cart.    s(33) = (  0.0000000  0.0000000 -1.0000000 )
                  (  0.0000000  1.0000000  0.0000000 )
                  ( -1.0000000  0.0000000  0.0000000 )


      isym = 34     inv. 180 deg rotation - cart. axis [-1,0,1]  

 cryst.   s(34) = (     0          0          1      )
                  (     0          1          0      )
                  (     1          0          0      )

 cart.    s(34) = (  0.0000000  0.0000000  1.0000000 )
                  (  0.0000000  1.0000000  0.0000000 )
                  (  1.0000000  0.0000000  0.0000000 )


      isym = 35     inv.  90 deg rotation - cart. axis [0,1,0]   

 cryst.   s(35) = (     0          0          1      )
                  (     0         -1          0      )
                  (    -1          0          0      )

 cart.    s(35) = (  0.0000000  0.0000000 -1.0000000 )
                  (  0.0000000 -1.0000000  0.0000000 )
                  (  1.0000000  0.0000000  0.0000000 )


      isym = 36     inv.  90 deg rotation - cart. axis [0,-1,0]  

 cryst.   s(36) = (     0          0         -1      )
                  (     0         -1          0      )
                  (     1          0          0      )

 cart.    s(36) = (  0.0000000  0.0000000  1.0000000 )
                  (  0.0000000 -1.0000000  0.0000000 )
                  ( -1.0000000  0.0000000  0.0000000 )


      isym = 37     inv. 180 deg rotation - cart. axis [0,1,1]   

 cryst.   s(37) = (     1          0          0      )
                  (     0          0         -1      )
                  (     0         -1          0      )

 cart.    s(37) = (  1.0000000  0.0000000  0.0000000 )
                  (  0.0000000  0.0000000 -1.0000000 )
                  (  0.0000000 -1.0000000  0.0000000 )


      isym = 38     inv. 180 deg rotation - cart. axis [0,1,-1]  

 cryst.   s(38) = (     1          0          0      )
                  (     0          0          1      )
                  (     0          1          0      )

 cart.    s(38) = (  1.0000000  0.0000000  0.0000000 )
                  (  0.0000000  0.0000000  1.0000000 )
                  (  0.0000000  1.0000000  0.0000000 )


      isym = 39     inv.  90 deg rotation - cart. axis [-1,0,0]  

 cryst.   s(39) = (    -1          0          0      )
                  (     0          0          1      )
                  (     0         -1          0      )

 cart.    s(39) = ( -1.0000000  0.0000000  0.0000000 )
                  (  0.0000000  0.0000000 -1.0000000 )
                  (  0.0000000  1.0000000  0.0000000 )


      isym = 40     inv.  90 deg rotation - cart. axis [1,0,0]   

 cryst.   s(40) = (    -1          0          0      )
                  (     0          0         -1      )
                  (     0          1          0      )

 cart.    s(40) = ( -1.0000000  0.0000000  0.0000000 )
                  (  0.0000000  0.0000000  1.0000000 )
                  (  0.0000000 -1.0000000  0.0000000 )


      isym = 41     inv. 120 deg rotation - cart. axis [-1,-1,-1]

 cryst.   s(41) = (     0          0         -1      )
                  (    -1          0          0      )
                  (     0         -1          0      )

 cart.    s(41) = (  0.0000000 -1.0000000  0.0000000 )
                  (  0.0000000  0.0000000 -1.0000000 )
                  ( -1.0000000  0.0000000  0.0000000 )


      isym = 42     inv. 120 deg rotation - cart. axis [-1,1,1]  

 cryst.   s(42) = (     0          0          1      )
                  (     1          0          0      )
                  (     0         -1          0      )

 cart.    s(42) = (  0.0000000  1.0000000  0.0000000 )
                  (  0.0000000  0.0000000 -1.0000000 )
                  (  1.0000000  0.0000000  0.0000000 )


      isym = 43     inv. 120 deg rotation - cart. axis [1,1,-1]  

 cryst.   s(43) = (     0          0          1      )
                  (    -1          0          0      )
                  (     0          1          0      )

 cart.    s(43) = (  0.0000000 -1.0000000  0.0000000 )
                  (  0.0000000  0.0000000  1.0000000 )
                  (  1.0000000  0.0000000  0.0000000 )


      isym = 44     inv. 120 deg rotation - cart. axis [1,-1,1]  

 cryst.   s(44) = (     0          0         -1      )
                  (     1          0          0      )
                  (     0          1          0      )

 cart.    s(44) = (  0.0000000  1.0000000  0.0000000 )
                  (  0.0000000  0.0000000  1.0000000 )
                  ( -1.0000000  0.0000000  0.0000000 )


      isym = 45     inv. 120 deg rotation - cart. axis [1,1,1]   

 cryst.   s(45) = (     0         -1          0      )
                  (     0          0         -1      )
                  (    -1          0          0      )

 cart.    s(45) = (  0.0000000  0.0000000 -1.0000000 )
                  ( -1.0000000  0.0000000  0.0000000 )
                  (  0.0000000 -1.0000000  0.0000000 )


      isym = 46     inv. 120 deg rotation - cart. axis [-1,1,-1] 

 cryst.   s(46) = (     0          1          0      )
                  (     0          0          1      )
                  (    -1          0          0      )

 cart.    s(46) = (  0.0000000  0.0000000 -1.0000000 )
                  (  1.0000000  0.0000000  0.0000000 )
                  (  0.0000000  1.0000000  0.0000000 )


      isym = 47     inv. 120 deg rotation - cart. axis [1,-1,-1] 

 cryst.   s(47) = (     0          1          0      )
                  (     0          0         -1      )
                  (     1          0          0      )

 cart.    s(47) = (  0.0000000  0.0000000  1.0000000 )
                  (  1.0000000  0.0000000  0.0000000 )
                  (  0.0000000 -1.0000000  0.0000000 )


      isym = 48     inv. 120 deg rotation - cart. axis [-1,-1,1] 

 cryst.   s(48) = (     0         -1          0      )
                  (     0          0          1      )
                  (     1          0          0      )

 cart.    s(48) = (  0.0000000  0.0000000  1.0000000 )
                  ( -1.0000000  0.0000000  0.0000000 )
                  (  0.0000000  1.0000000  0.0000000 )


   Cartesian axes

     site n.     atom                  positions (alat units)
         1           Cs  tau(   1) = (   0.2500001   0.2500001   0.2500001  )
         2           Cs  tau(   2) = (   0.2500001   0.2500001   0.7499999  )
         3           Cs  tau(   3) = (   0.2500001   0.7499999   0.2500001  )
         4           Cs  tau(   4) = (   0.2500001   0.7499999   0.7499999  )
         5           Cs  tau(   5) = (   0.7499999   0.2500001   0.2500001  )
         6           Cs  tau(   6) = (   0.7499999   0.2500001   0.7499999  )
         7           Cs  tau(   7) = (   0.7499999   0.7499999   0.2500001  )
         8           Cs  tau(   8) = (   0.7499999   0.7499999   0.7499999  )
         9           Pb  tau(   9) = (   0.0000000   0.0000000   0.0000000  )
        10           Pb  tau(  10) = (   0.0000000   0.0000000   0.5000000  )
        11           Pb  tau(  11) = (   0.0000000   0.5000000   0.0000000  )
        12           Pb  tau(  12) = (   0.0000000   0.5000000   0.5000000  )
        13           Pb  tau(  13) = (   0.5000000   0.0000000   0.0000000  )
        14           Pb  tau(  14) = (   0.5000000   0.0000000   0.5000000  )
        15           Pb  tau(  15) = (   0.5000000   0.5000000   0.0000000  )
        16           Pb  tau(  16) = (   0.5000000   0.5000000   0.5000000  )
        17           I   tau(  17) = (   0.0000000   0.0000000   0.2500016  )
        18           I   tau(  18) = (   0.0000000   0.0000000   0.7499984  )
        19           I   tau(  19) = (   0.0000000   0.5000000   0.2500017  )
        20           I   tau(  20) = (   0.0000000   0.5000000   0.7499983  )
        21           I   tau(  21) = (   0.5000000   0.0000000   0.2500017  )
        22           I   tau(  22) = (   0.5000000   0.0000000   0.7499983  )
        23           I   tau(  23) = (   0.5000000   0.5000000   0.2500017  )
        24           I   tau(  24) = (   0.5000000   0.5000000   0.7499983  )
        25           I   tau(  25) = (   0.0000000   0.2500016   0.0000000  )
        26           I   tau(  26) = (   0.0000000   0.2500017   0.5000000  )
        27           I   tau(  27) = (   0.0000000   0.7499984   0.0000000  )
        28           I   tau(  28) = (   0.0000000   0.7499983   0.5000000  )
        29           I   tau(  29) = (   0.5000000   0.2500017   0.0000000  )
        30           I   tau(  30) = (   0.5000000   0.2500017   0.5000000  )
        31           I   tau(  31) = (   0.5000000   0.7499983   0.0000000  )
        32           I   tau(  32) = (   0.5000000   0.7499983   0.5000000  )
        33           I   tau(  33) = (   0.2500016   0.0000000   0.0000000  )
        34           I   tau(  34) = (   0.2500017   0.0000000   0.5000000  )
        35           I   tau(  35) = (   0.2500017   0.5000000   0.0000000  )
        36           I   tau(  36) = (   0.2500017   0.5000000   0.5000000  )
        37           I   tau(  37) = (   0.7499984   0.0000000   0.0000000  )
        38           I   tau(  38) = (   0.7499983   0.0000000   0.5000000  )
        39           I   tau(  39) = (   0.7499983   0.5000000   0.0000000  )
        40           I   tau(  40) = (   0.7499983   0.5000000   0.5000000  )

   Crystallographic axes

     site n.     atom                  positions (cryst. coord.)
         1           Cs  tau(   1) = (  0.2500001  0.2500001  0.2500001  )
         2           Cs  tau(   2) = (  0.2500001  0.2500001  0.7499999  )
         3           Cs  tau(   3) = (  0.2500001  0.7499999  0.2500001  )
         4           Cs  tau(   4) = (  0.2500001  0.7499999  0.7499999  )
         5           Cs  tau(   5) = (  0.7499999  0.2500001  0.2500001  )
         6           Cs  tau(   6) = (  0.7499999  0.2500001  0.7499999  )
         7           Cs  tau(   7) = (  0.7499999  0.7499999  0.2500001  )
         8           Cs  tau(   8) = (  0.7499999  0.7499999  0.7499999  )
         9           Pb  tau(   9) = (  0.0000000  0.0000000  0.0000000  )
        10           Pb  tau(  10) = (  0.0000000  0.0000000  0.5000000  )
        11           Pb  tau(  11) = (  0.0000000  0.5000000  0.0000000  )
        12           Pb  tau(  12) = (  0.0000000  0.5000000  0.5000000  )
        13           Pb  tau(  13) = (  0.5000000  0.0000000  0.0000000  )
        14           Pb  tau(  14) = (  0.5000000  0.0000000  0.5000000  )
        15           Pb  tau(  15) = (  0.5000000  0.5000000  0.0000000  )
        16           Pb  tau(  16) = (  0.5000000  0.5000000  0.5000000  )
        17           I   tau(  17) = (  0.0000000  0.0000000  0.2500016  )
        18           I   tau(  18) = (  0.0000000  0.0000000  0.7499984  )
        19           I   tau(  19) = (  0.0000000  0.5000000  0.2500017  )
        20           I   tau(  20) = (  0.0000000  0.5000000  0.7499983  )
        21           I   tau(  21) = (  0.5000000  0.0000000  0.2500017  )
        22           I   tau(  22) = (  0.5000000  0.0000000  0.7499983  )
        23           I   tau(  23) = (  0.5000000  0.5000000  0.2500017  )
        24           I   tau(  24) = (  0.5000000  0.5000000  0.7499983  )
        25           I   tau(  25) = (  0.0000000  0.2500016  0.0000000  )
        26           I   tau(  26) = (  0.0000000  0.2500017  0.5000000  )
        27           I   tau(  27) = (  0.0000000  0.7499984  0.0000000  )
        28           I   tau(  28) = (  0.0000000  0.7499983  0.5000000  )
        29           I   tau(  29) = (  0.5000000  0.2500017  0.0000000  )
        30           I   tau(  30) = (  0.5000000  0.2500017  0.5000000  )
        31           I   tau(  31) = (  0.5000000  0.7499983  0.0000000  )
        32           I   tau(  32) = (  0.5000000  0.7499983  0.5000000  )
        33           I   tau(  33) = (  0.2500016  0.0000000  0.0000000  )
        34           I   tau(  34) = (  0.2500017  0.0000000  0.5000000  )
        35           I   tau(  35) = (  0.2500017  0.5000000  0.0000000  )
        36           I   tau(  36) = (  0.2500017  0.5000000  0.5000000  )
        37           I   tau(  37) = (  0.7499984  0.0000000  0.0000000  )
        38           I   tau(  38) = (  0.7499983  0.0000000  0.5000000  )
        39           I   tau(  39) = (  0.7499983  0.5000000  0.0000000  )
        40           I   tau(  40) = (  0.7499983  0.5000000  0.5000000  )

     number of k points=     4  Marzari-Vanderbilt smearing, width (Ry)=  0.0147
                       cart. coord. in units 2pi/alat
        k(    1) = (   0.0000000   0.0000000   0.0000000), wk =   0.0740741
        k(    2) = (   0.0000000   0.0000000   0.3333333), wk =   0.4444444
        k(    3) = (   0.0000000   0.3333333   0.3333333), wk =   0.8888889
        k(    4) = (   0.3333333   0.3333333   0.3333333), wk =   0.5925926

                       cryst. coord.
        k(    1) = (   0.0000000   0.0000000   0.0000000), wk =   0.0740741
        k(    2) = (   0.0000000   0.0000000   0.3333333), wk =   0.4444444
        k(    3) = (   0.0000000   0.3333333   0.3333333), wk =   0.8888889
        k(    4) = (   0.3333333   0.3333333   0.3333333), wk =   0.5925926

     Dense  grid:  1896329 G-vectors     FFT dimensions: ( 160, 160, 160)

     Smooth grid:   479769 G-vectors     FFT dimensions: ( 100, 100, 100)

     Dynamical RAM for                 wfc:      96.49 MB

     Dynamical RAM for     wfc (w. buffer):     482.44 MB

     Dynamical RAM for           str. fact:      43.40 MB

     Dynamical RAM for           local pot:       0.00 MB

     Dynamical RAM for          nlocal pot:     219.50 MB

     Dynamical RAM for                qrad:       4.82 MB

     Dynamical RAM for          rho,v,vnew:      90.28 MB

     Dynamical RAM for               rhoin:      30.09 MB

     Dynamical RAM for            rho*nmix:     231.48 MB

     Dynamical RAM for           G-vectors:      56.08 MB

     Dynamical RAM for          h,s,v(r/c):       8.15 MB

     Dynamical RAM for          <psi|beta>:       1.55 MB

     Dynamical RAM for                 psi:     192.98 MB

     Dynamical RAM for                hpsi:     192.98 MB

     Dynamical RAM for                spsi:     192.98 MB

     Dynamical RAM for      wfcinit/wfcrot:     250.46 MB

     Dynamical RAM for           addusdens:    3038.24 MB

     Dynamical RAM for          addusforce:    3711.09 MB

     Dynamical RAM for         addusstress:    2908.03 MB

     Estimated static dynamical RAM per process >       1.26 GB

     Estimated max dynamical RAM per process >       4.89 GB

     Estimated total dynamical RAM >       9.78 GB

     Initial potential from superposition of free atoms

     starting charge  351.66429, renormalised to  352.00000
     Starting wfcs are  272 randomized atomic wfcs
     Checking if some PAW data can be deallocated... 
       PAW data deallocated on    1 nodes for type:  3

     total cpu time spent up to now is      214.7 secs

     Self-consistent Calculation

     iteration #  1     ecut=    40.00 Ry     beta= 0.40
     Davidson diagonalization with overlap
     ethr =  1.00E-02,  avg # of iterations =  2.8

     Threshold (ethr) on eigenvalues was too large:
     Diagonalizing with lowered threshold

     Davidson diagonalization with overlap
     ethr =  2.57E-04,  avg # of iterations =  8.8

     total cpu time spent up to now is     1328.6 secs

     total energy              =  -16565.69671842 Ry
     estimated scf accuracy    <       0.82164656 Ry

     iteration #  2     ecut=    40.00 Ry     beta= 0.40
     Davidson diagonalization with overlap
     ethr =  2.33E-04,  avg # of iterations =  2.0

     total cpu time spent up to now is     1939.5 secs

     total energy              =  -16565.82395179 Ry
     estimated scf accuracy    <       0.05288310 Ry

     iteration #  3     ecut=    40.00 Ry     beta= 0.40
     Davidson diagonalization with overlap
     ethr =  1.50E-05,  avg # of iterations = 16.2

     total cpu time spent up to now is     2904.7 secs

     total energy              =  -16565.85168285 Ry
     estimated scf accuracy    <       0.01518523 Ry

     iteration #  4     ecut=    40.00 Ry     beta= 0.40
     Davidson diagonalization with overlap
     ethr =  4.31E-06,  avg # of iterations =  8.8

     total cpu time spent up to now is     3531.6 secs

     total energy              =  -16565.85437701 Ry
     estimated scf accuracy    <       0.00221895 Ry

     iteration #  5     ecut=    40.00 Ry     beta= 0.40
     Davidson diagonalization with overlap
     ethr =  6.30E-07,  avg # of iterations =  5.5

     total cpu time spent up to now is     4175.9 secs

     total energy              =  -16565.85488488 Ry
     estimated scf accuracy    <       0.00029486 Ry

     iteration #  6     ecut=    40.00 Ry     beta= 0.40
     Davidson diagonalization with overlap
     ethr =  8.38E-08,  avg # of iterations =  9.0

     total cpu time spent up to now is     4835.1 secs

     total energy              =  -16565.85497612 Ry
     estimated scf accuracy    <       0.00007065 Ry

     iteration #  7     ecut=    40.00 Ry     beta= 0.40
     Davidson diagonalization with overlap
     ethr =  2.01E-08,  avg # of iterations =  4.2

     total cpu time spent up to now is     5526.0 secs

     total energy              =  -16565.85499825 Ry
     estimated scf accuracy    <       0.00000871 Ry

     iteration #  8     ecut=    40.00 Ry     beta= 0.40
     Davidson diagonalization with overlap
     ethr =  2.47E-09,  avg # of iterations =  5.2

     total cpu time spent up to now is     6186.6 secs

     total energy              =  -16565.85500139 Ry
     estimated scf accuracy    <       0.00000196 Ry

     iteration #  9     ecut=    40.00 Ry     beta= 0.40
     Davidson diagonalization with overlap
     ethr =  5.56E-10,  avg # of iterations =  5.0

     total cpu time spent up to now is     6996.5 secs

     total energy              =  -16565.85500226 Ry
     estimated scf accuracy    <       0.00000066 Ry

     iteration # 10     ecut=    40.00 Ry     beta= 0.40
     Davidson diagonalization with overlap
     ethr =  1.87E-10,  avg # of iterations =  3.0

     total cpu time spent up to now is     7557.0 secs

     total energy              =  -16565.85500238 Ry
     estimated scf accuracy    <       0.00000015 Ry

     iteration # 11     ecut=    40.00 Ry     beta= 0.40
     Davidson diagonalization with overlap
     ethr =  4.33E-11,  avg # of iterations =  5.5

     total cpu time spent up to now is     8196.4 secs

     End of self-consistent calculation

          k = 0.0000 0.0000 0.0000 ( 60005 PWs)   bands (ev):

   -18.6198 -18.6196 -18.6196 -18.6196 -18.6194 -18.6194 -18.6194 -18.6192
   -13.9061 -13.9061 -13.9061 -13.9060 -13.9060 -13.9005 -13.9005 -13.9005
   -13.8949 -13.8949 -13.8949 -13.8892 -13.8892 -13.8891 -13.8891 -13.8891
   -13.8544 -13.8544 -13.8544 -13.8543 -13.8543 -13.8543 -13.8541 -13.8541
   -13.8541 -13.8541 -13.8541 -13.8541 -13.8540 -13.8540 -13.8540 -13.8540
   -13.8540 -13.8540 -13.8537 -13.8537 -13.8537 -13.8537 -13.8537 -13.8537
    -9.3424  -9.1456  -9.1456  -9.1456  -8.9038  -8.9038  -8.9038  -8.8420
    -8.8420  -8.8420  -8.8420  -8.8420  -8.8420  -8.8415  -8.8415  -8.8415
    -8.8364  -8.8364  -8.8364  -8.6152  -8.6152  -8.6131  -8.6131  -8.6131
    -5.6598  -5.4083  -5.4083  -5.4083  -5.3953  -5.3953  -5.3953  -5.3951
    -5.3951  -5.3951  -5.3951  -5.3951  -5.3951  -5.3913  -5.3913  -5.3913
    -5.3913  -5.3913  -5.3913  -5.3881  -5.3881  -5.3881  -5.3872  -5.3872
    -5.3872  -5.1313  -5.1313  -5.1313  -4.6254  -4.6254  -4.6254  -4.1126
    -0.6230  -0.6230  -0.6230  -0.5199  -0.5199  -0.5199  -0.5199  -0.5199
    -0.5199  -0.3839  -0.3839  -0.3839   0.6069   0.6069   0.6069   0.7389
     0.7389   0.7389   0.8906   0.8906   0.8906   1.2093   1.2093   1.2093
     1.2093   1.2093   1.2093   1.3066   1.3066   1.3066   1.3066   1.3066
     1.3066   1.3551   1.3551   1.3551   1.3551   1.3551   1.3551   1.4195
     1.4195   1.4195   1.4306   1.4306   1.4306   1.4381   1.4381   1.5488
     1.5488   1.5488   1.5746   1.5746   1.5746   1.5746   1.5746   1.5746
     1.6633   1.6633   1.6633   1.8952   1.8952   1.8952   2.0488   2.0488
     2.0488   2.0610   2.0610   2.0610   2.3308   2.3308   2.3308   2.7671
     4.2013   4.2013   4.2013   4.6287   4.6287   4.6287   4.6287   4.6287
     4.6287   4.9604   4.9604   4.9604   5.8992   6.7504   6.9738   6.9738
     7.3222   7.3222   7.3222   7.3825   7.3825   7.3826   7.5514   7.5514
     7.5514   7.6017   7.6017   7.6020   7.7693   7.7696   7.8686   7.9113
     7.9115   7.9115   7.9115

     occupation numbers 
     1.0000   1.0000   1.0000   1.0000   1.0000   1.0000   1.0000   1.0000
     1.0000   1.0000   1.0000   1.0000   1.0000   1.0000   1.0000   1.0000
     1.0000   1.0000   1.0000   1.0000   1.0000   1.0000   1.0000   1.0000
     1.0000   1.0000   1.0000   1.0000   1.0000   1.0000   1.0000   1.0000
     1.0000   1.0000   1.0000   1.0000   1.0000   1.0000   1.0000   1.0000
     1.0000   1.0000   1.0000   1.0000   1.0000   1.0000   1.0000   1.0000
     1.0000   1.0000   1.0000   1.0000   1.0000   1.0000   1.0000   1.0000
     1.0000   1.0000   1.0000   1.0000   1.0000   1.0000   1.0000   1.0000
     1.0000   1.0000   1.0000   1.0000   1.0000   1.0000   1.0000   1.0000
     1.0000   1.0000   1.0000   1.0000   1.0000   1.0000   1.0000   1.0000
     1.0000   1.0000   1.0000   1.0000   1.0000   1.0000   1.0000   1.0000
     1.0000   1.0000   1.0000   1.0000   1.0000   1.0000   1.0000   1.0000
     1.0000   1.0000   1.0000   1.0000   1.0000   1.0000   1.0000   1.0000
     1.0000   1.0000   1.0000   1.0000   1.0000   1.0000   1.0000   1.0000
     1.0000   1.0000   1.0000   1.0000   1.0000   1.0000   1.0000   1.0000
     1.0000   1.0000   1.0000   1.0000   1.0000   1.0000   1.0000   1.0000
     1.0000   1.0000   1.0000   1.0000   1.0000   1.0000   1.0000   1.0000
     1.0000   1.0000   1.0000   1.0000   1.0000   1.0000   1.0000   1.0000
     1.0000   1.0000   1.0000   1.0000   1.0000   1.0000   1.0000   1.0000
     1.0000   1.0000   1.0000   1.0000   1.0000   1.0000   1.0000   1.0000
     1.0000   1.0000   1.0000   1.0000   1.0000   1.0000   1.0014   1.0014
     1.0014   1.0019   1.0019   1.0019   1.0763   1.0763   1.0763   0.1103
     0.0000   0.0000   0.0000   0.0000   0.0000   0.0000   0.0000   0.0000
     0.0000   0.0000   0.0000   0.0000   0.0000   0.0000   0.0000   0.0000
     0.0000   0.0000   0.0000   0.0000   0.0000   0.0000   0.0000   0.0000
     0.0000   0.0000   0.0000   0.0000   0.0000   0.0000   0.0000   0.0000
     0.0000   0.0000   0.0000

          k = 0.0000 0.0000 0.3333 ( 59944 PWs)   bands (ev):

   -18.6197 -18.6196 -18.6195 -18.6195 -18.6194 -18.6194 -18.6193 -18.6192
   -13.9060 -13.9060 -13.9041 -13.9041 -13.9032 -13.9014 -13.9014 -13.8977
   -13.8977 -13.8940 -13.8940 -13.8920 -13.8911 -13.8911 -13.8892 -13.8891
   -13.8544 -13.8544 -13.8543 -13.8543 -13.8542 -13.8542 -13.8542 -13.8542
   -13.8541 -13.8541 -13.8541 -13.8541 -13.8540 -13.8540 -13.8540 -13.8540
   -13.8539 -13.8539 -13.8538 -13.8538 -13.8537 -13.8537 -13.8537 -13.8536
    -9.3069  -9.2150  -9.1101  -9.1101  -9.0125  -9.0125  -8.8879  -8.8542
    -8.8419  -8.8419  -8.8416  -8.8416  -8.8406  -8.8406  -8.8378  -8.8378
    -8.7644  -8.7363  -8.7363  -8.6578  -8.6452  -8.6452  -8.6146  -8.6136
    -5.5402  -5.4050  -5.4050  -5.4033  -5.3984  -5.3984  -5.3943  -5.3943
    -5.3942  -5.3942  -5.3942  -5.3942  -5.3932  -5.3927  -5.3923  -5.3923
    -5.3923  -5.3923  -5.3905  -5.3905  -5.3898  -5.3898  -5.3889  -5.3889
    -5.3885  -5.2780  -5.0203  -5.0203  -4.7706  -4.7706  -4.5191  -4.2669
    -0.5988  -0.5988  -0.5474  -0.5474  -0.4887  -0.4887  -0.4210  -0.4210
    -0.2306  -0.1328  -0.1328   0.0067   0.5595   0.6391   0.6695   0.6695
     0.7051   0.7137   0.7137   0.7994   0.7994   0.8132   0.8132   0.8999
     0.9757   0.9757   1.2020   1.2020   1.2216   1.2216   1.3186   1.3186
     1.3428   1.3428   1.3757   1.3757   1.4108   1.4108   1.4325   1.4362
     1.4505   1.5015   1.5015   1.5093   1.5093   1.5104   1.5104   1.5151
     1.5537   1.5537   1.5898   1.5898   1.6016   1.6016   1.6246   1.6312
     1.6312   1.6566   1.6753   1.6753   1.9182   1.9182   1.9295   1.9295
     1.9380   1.9380   2.0518   2.0579   2.0773   2.0773   2.3567   2.4807
     4.3205   4.3205   4.5328   4.5328   4.7211   4.7211   4.8877   4.8877
     5.2135   5.5309   5.5309   5.8177   6.1515   6.7133   6.7865   6.9436
     7.0553   7.0553   7.1126   7.1797   7.3952   7.4483   7.4483   7.4505
     7.4528   7.4680   7.5609   7.5609   7.5927   7.5927   7.6736   7.7353
     7.7353   7.7748   7.7749

     occupation numbers 
     1.0000   1.0000   1.0000   1.0000   1.0000   1.0000   1.0000   1.0000
     1.0000   1.0000   1.0000   1.0000   1.0000   1.0000   1.0000   1.0000
     1.0000   1.0000   1.0000   1.0000   1.0000   1.0000   1.0000   1.0000
     1.0000   1.0000   1.0000   1.0000   1.0000   1.0000   1.0000   1.0000
     1.0000   1.0000   1.0000   1.0000   1.0000   1.0000   1.0000   1.0000
     1.0000   1.0000   1.0000   1.0000   1.0000   1.0000   1.0000   1.0000
     1.0000   1.0000   1.0000   1.0000   1.0000   1.0000   1.0000   1.0000
     1.0000   1.0000   1.0000   1.0000   1.0000   1.0000   1.0000   1.0000
     1.0000   1.0000   1.0000   1.0000   1.0000   1.0000   1.0000   1.0000
     1.0000   1.0000   1.0000   1.0000   1.0000   1.0000   1.0000   1.0000
     1.0000   1.0000   1.0000   1.0000   1.0000   1.0000   1.0000   1.0000
     1.0000   1.0000   1.0000   1.0000   1.0000   1.0000   1.0000   1.0000
     1.0000   1.0000   1.0000   1.0000   1.0000   1.0000   1.0000   1.0000
     1.0000   1.0000   1.0000   1.0000   1.0000   1.0000   1.0000   1.0000
     1.0000   1.0000   1.0000   1.0000   1.0000   1.0000   1.0000   1.0000
     1.0000   1.0000   1.0000   1.0000   1.0000   1.0000   1.0000   1.0000
     1.0000   1.0000   1.0000   1.0000   1.0000   1.0000   1.0000   1.0000
     1.0000   1.0000   1.0000   1.0000   1.0000   1.0000   1.0000   1.0000
     1.0000   1.0000   1.0000   1.0000   1.0000   1.0000   1.0000   1.0000
     1.0000   1.0000   1.0000   1.0000   1.0000   1.0000   1.0000   1.0000
     1.0000   1.0000   1.0000   1.0000   1.0000   1.0000   1.0001   1.0001
     1.0001   1.0001   1.0015   1.0017   1.0026   1.0026   1.0826   0.9717
     0.0000   0.0000   0.0000   0.0000   0.0000   0.0000   0.0000   0.0000
     0.0000   0.0000   0.0000   0.0000   0.0000   0.0000   0.0000   0.0000
     0.0000   0.0000   0.0000   0.0000   0.0000   0.0000   0.0000   0.0000
     0.0000   0.0000   0.0000   0.0000   0.0000   0.0000   0.0000   0.0000
     0.0000   0.0000   0.0000

          k = 0.0000 0.3333 0.3333 ( 59892 PWs)   bands (ev):

   -18.6197 -18.6196 -18.6196 -18.6195 -18.6195 -18.6194 -18.6194 -18.6193
   -13.9046 -13.9042 -13.9041 -13.9019 -13.9019 -13.9018 -13.8986 -13.8985
   -13.8968 -13.8968 -13.8935 -13.8935 -13.8934 -13.8911 -13.8911 -13.8906
   -13.8543 -13.8543 -13.8543 -13.8542 -13.8542 -13.8542 -13.8542 -13.8541
   -13.8541 -13.8541 -13.8541 -13.8540 -13.8540 -13.8540 -13.8540 -13.8540
   -13.8539 -13.8539 -13.8539 -13.8538 -13.8538 -13.8538 -13.8537 -13.8537
    -9.2718  -9.1806  -9.1806  -9.0895  -9.0772  -8.9879  -8.9879  -8.9239
    -8.8414  -8.8409  -8.8409  -8.8388  -8.7878  -8.7829  -8.7667  -8.7667
    -8.7473  -8.7473  -8.7138  -8.6744  -8.6713  -8.6449  -8.6449  -8.6372
    -5.4307  -5.4041  -5.3982  -5.3982  -5.3980  -5.3978  -5.3978  -5.3956
    -5.3951  -5.3949  -5.3948  -5.3937  -5.3937  -5.3933  -5.3928  -5.3917
    -5.3915  -5.3915  -5.3912  -5.3912  -5.3904  -5.3897  -5.3895  -5.3891
    -5.3891  -5.1649  -5.1649  -4.9144  -4.9123  -4.6647  -4.6647  -4.4165
    -0.5731  -0.5182  -0.5182  -0.4553  -0.2843  -0.1685  -0.1685  -0.1633
    -0.1319  -0.0404  -0.0387  -0.0387   0.5631   0.5766   0.5766   0.6334
     0.6919   0.6919   0.7232   0.7292   0.7292   0.7504   0.7716   0.7873
     0.8183   0.9792   0.9792   1.0453   1.0479   1.1469   1.1840   1.1840
     1.2201   1.2201   1.3295   1.3470   1.3630   1.3977   1.3977   1.4092
     1.4838   1.5228   1.5274   1.5274   1.5300   1.5496   1.5496   1.5639
     1.5821   1.5858   1.5935   1.5935   1.6234   1.6234   1.6699   1.6897
     1.6897   1.7086   1.7363   1.7540   1.7540   1.7889   1.8636   1.8897
     1.8958   1.9438   1.9438   1.9459   1.9783   2.0855   2.0855   2.1769
     4.4312   4.6307   4.6307   4.8082   5.2445   5.3322   5.4482   5.4482
     5.5705   5.6322   5.7469   5.7469   6.3627   6.7713   6.7713   6.8926
     6.8926   6.9101   6.9611   7.0782   7.1650   7.1650   7.1961   7.2782
     7.2926   7.3400   7.3486   7.4160   7.4390   7.4391   7.5699   7.5844
     7.5844   7.6230   7.6954

     occupation numbers 
     1.0000   1.0000   1.0000   1.0000   1.0000   1.0000   1.0000   1.0000
     1.0000   1.0000   1.0000   1.0000   1.0000   1.0000   1.0000   1.0000
     1.0000   1.0000   1.0000   1.0000   1.0000   1.0000   1.0000   1.0000
     1.0000   1.0000   1.0000   1.0000   1.0000   1.0000   1.0000   1.0000
     1.0000   1.0000   1.0000   1.0000   1.0000   1.0000   1.0000   1.0000
     1.0000   1.0000   1.0000   1.0000   1.0000   1.0000   1.0000   1.0000
     1.0000   1.0000   1.0000   1.0000   1.0000   1.0000   1.0000   1.0000
     1.0000   1.0000   1.0000   1.0000   1.0000   1.0000   1.0000   1.0000
     1.0000   1.0000   1.0000   1.0000   1.0000   1.0000   1.0000   1.0000
     1.0000   1.0000   1.0000   1.0000   1.0000   1.0000   1.0000   1.0000
     1.0000   1.0000   1.0000   1.0000   1.0000   1.0000   1.0000   1.0000
     1.0000   1.0000   1.0000   1.0000   1.0000   1.0000   1.0000   1.0000
     1.0000   1.0000   1.0000   1.0000   1.0000   1.0000   1.0000   1.0000
     1.0000   1.0000   1.0000   1.0000   1.0000   1.0000   1.0000   1.0000
     1.0000   1.0000   1.0000   1.0000   1.0000   1.0000   1.0000   1.0000
     1.0000   1.0000   1.0000   1.0000   1.0000   1.0000   1.0000   1.0000
     1.0000   1.0000   1.0000   1.0000   1.0000   1.0000   1.0000   1.0000
     1.0000   1.0000   1.0000   1.0000   1.0000   1.0000   1.0000   1.0000
     1.0000   1.0000   1.0000   1.0000   1.0000   1.0000   1.0000   1.0000
     1.0000   1.0000   1.0000   1.0000   1.0000   1.0000   1.0000   1.0000
     1.0000   1.0000   1.0000   1.0000   1.0000   1.0000   1.0000   1.0000
     1.0000   1.0001   1.0001   1.0001   1.0003   1.0031   1.0031   1.0157
     0.0000   0.0000   0.0000   0.0000   0.0000   0.0000   0.0000   0.0000
     0.0000   0.0000   0.0000   0.0000   0.0000   0.0000   0.0000   0.0000
     0.0000   0.0000   0.0000   0.0000   0.0000   0.0000   0.0000   0.0000
     0.0000   0.0000   0.0000   0.0000   0.0000   0.0000   0.0000   0.0000
     0.0000   0.0000   0.0000

          k = 0.3333 0.3333 0.3333 ( 59956 PWs)   bands (ev):

   -18.6196 -18.6195 -18.6195 -18.6195 -18.6194 -18.6194 -18.6194 -18.6193
   -13.9019 -13.9019 -13.9019 -13.9018 -13.9018 -13.8991 -13.8991 -13.8991
   -13.8963 -13.8963 -13.8963 -13.8935 -13.8935 -13.8935 -13.8934 -13.8934
   -13.8542 -13.8542 -13.8542 -13.8542 -13.8542 -13.8542 -13.8541 -13.8541
   -13.8541 -13.8540 -13.8540 -13.8540 -13.8540 -13.8540 -13.8540 -13.8540
   -13.8540 -13.8540 -13.8539 -13.8539 -13.8539 -13.8538 -13.8538 -13.8538
    -9.2375  -9.1480  -9.1480  -9.1480  -9.0617  -9.0617  -9.0617  -8.9890
    -8.7865  -8.7865  -8.7865  -8.7841  -8.7841  -8.7680  -8.7680  -8.7680
    -8.7317  -8.7317  -8.7317  -8.6737  -8.6737  -8.6721  -8.6721  -8.6721
    -5.4017  -5.4017  -5.3974  -5.3971  -5.3971  -5.3971  -5.3971  -5.3971
    -5.3971  -5.3954  -5.3954  -5.3954  -5.3950  -5.3950  -5.3943  -5.3943
    -5.3943  -5.3897  -5.3897  -5.3897  -5.3879  -5.3877  -5.3877  -5.3877
    -5.3064  -5.0559  -5.0559  -5.0559  -4.8085  -4.8085  -4.8085  -4.5627
    -0.2568  -0.2568  -0.1966  -0.1966  -0.1966  -0.0836  -0.0836  -0.0836
    -0.0803  -0.0803  -0.0803  -0.0383   0.5891   0.5891   0.5891   0.5927
     0.5927   0.5927   0.6477   0.6477   0.6477   0.6621   0.6621   0.6868
     0.9541   0.9541   0.9949   0.9949   0.9949   1.1265   1.1265   1.1265
     1.1689   1.1689   1.1689   1.2652   1.2652   1.2652   1.3137   1.3137
     1.4224   1.4394   1.4394   1.4394   1.4835   1.4835   1.4835   1.6646
     1.6767   1.6767   1.6767   1.7057   1.7057   1.7128   1.7128   1.7128
     1.7299   1.7299   1.7299   1.7350   1.7655   1.7655   1.7655   1.8205
     1.8205   1.8205   1.8781   1.8781   1.8967   1.8967   1.8967   1.9193
     5.3242   5.3242   5.4395   5.4875   5.4875   5.4875   5.5528   5.5528
     5.5528   5.6709   5.6709   5.6709   6.5112   6.8098   6.8098   6.8098
     6.8436   6.8436   6.8436   7.0062   7.0062   7.0062   7.1142   7.1405
     7.1405   7.1795   7.1795   7.1796   7.1839   7.2792   7.2792   7.2792
     7.3991   7.3991   7.6474

     occupation numbers 
     1.0000   1.0000   1.0000   1.0000   1.0000   1.0000   1.0000   1.0000
     1.0000   1.0000   1.0000   1.0000   1.0000   1.0000   1.0000   1.0000
     1.0000   1.0000   1.0000   1.0000   1.0000   1.0000   1.0000   1.0000
     1.0000   1.0000   1.0000   1.0000   1.0000   1.0000   1.0000   1.0000
     1.0000   1.0000   1.0000   1.0000   1.0000   1.0000   1.0000   1.0000
     1.0000   1.0000   1.0000   1.0000   1.0000   1.0000   1.0000   1.0000
     1.0000   1.0000   1.0000   1.0000   1.0000   1.0000   1.0000   1.0000
     1.0000   1.0000   1.0000   1.0000   1.0000   1.0000   1.0000   1.0000
     1.0000   1.0000   1.0000   1.0000   1.0000   1.0000   1.0000   1.0000
     1.0000   1.0000   1.0000   1.0000   1.0000   1.0000   1.0000   1.0000
     1.0000   1.0000   1.0000   1.0000   1.0000   1.0000   1.0000   1.0000
     1.0000   1.0000   1.0000   1.0000   1.0000   1.0000   1.0000   1.0000
     1.0000   1.0000   1.0000   1.0000   1.0000   1.0000   1.0000   1.0000
     1.0000   1.0000   1.0000   1.0000   1.0000   1.0000   1.0000   1.0000
     1.0000   1.0000   1.0000   1.0000   1.0000   1.0000   1.0000   1.0000
     1.0000   1.0000   1.0000   1.0000   1.0000   1.0000   1.0000   1.0000
     1.0000   1.0000   1.0000   1.0000   1.0000   1.0000   1.0000   1.0000
     1.0000   1.0000   1.0000   1.0000   1.0000   1.0000   1.0000   1.0000
     1.0000   1.0000   1.0000   1.0000   1.0000   1.0000   1.0000   1.0000
     1.0000   1.0000   1.0000   1.0000   1.0000   1.0000   1.0000   1.0000
     1.0000   1.0000   1.0000   1.0000   1.0000   1.0000   1.0000   1.0000
     1.0000   1.0000   1.0000   1.0000   1.0000   1.0000   1.0000   1.0001
     0.0000   0.0000   0.0000   0.0000   0.0000   0.0000   0.0000   0.0000
     0.0000   0.0000   0.0000   0.0000   0.0000   0.0000   0.0000   0.0000
     0.0000   0.0000   0.0000   0.0000   0.0000   0.0000   0.0000   0.0000
     0.0000   0.0000   0.0000   0.0000   0.0000   0.0000   0.0000   0.0000
     0.0000   0.0000   0.0000

     the Fermi energy is     2.6510 ev

!    total energy              =  -16565.85500244 Ry
     estimated scf accuracy    <          3.2E-09 Ry
     smearing contrib. (-TS)   =       0.00294145 Ry
     internal energy E=F+TS    =  -16565.85794389 Ry

     The total energy is F=E-TS. E is the sum of the following terms:
     one-electron contribution =    -767.65692466 Ry
     hartree contribution      =     549.49415221 Ry
     xc contribution           =   -1598.31229723 Ry
     ewald contribution        =   -1229.22289246 Ry
     one-center paw contrib.   =  -13520.15998175 Ry
      -> PAW hartree energy AE =     824.05433603 Ry
      -> PAW hartree energy PS =    -822.26836342 Ry
      -> PAW xc energy AE      =   -7623.07957660 Ry
      -> PAW xc energy PS      =     511.66682996 Ry
      -> total E_H with PAW    =     551.28012481 Ry
      -> total E_XC with PAW   =   -8709.72504386 Ry

     convergence has been achieved in  11 iterations

     Forces acting on atoms (cartesian axes, Ry/au):

     atom    1 type  1   force =    -0.00000005   -0.00000005   -0.00000005
     atom    2 type  1   force =    -0.00000005   -0.00000005    0.00000005
     atom    3 type  1   force =    -0.00000005    0.00000005   -0.00000005
     atom    4 type  1   force =    -0.00000005    0.00000005    0.00000005
     atom    5 type  1   force =     0.00000005   -0.00000005   -0.00000005
     atom    6 type  1   force =     0.00000005   -0.00000005    0.00000005
     atom    7 type  1   force =     0.00000005    0.00000005   -0.00000005
     atom    8 type  1   force =     0.00000005    0.00000005    0.00000005
     atom    9 type  3   force =     0.00000000    0.00000000    0.00000000
     atom   10 type  3   force =     0.00000000    0.00000000    0.00000000
     atom   11 type  3   force =     0.00000000    0.00000000    0.00000000
     atom   12 type  3   force =     0.00000000    0.00000000    0.00000000
     atom   13 type  3   force =     0.00000000    0.00000000    0.00000000
     atom   14 type  3   force =     0.00000000    0.00000000    0.00000000
     atom   15 type  3   force =     0.00000000    0.00000000    0.00000000
     atom   16 type  3   force =     0.00000000    0.00000000    0.00000000
     atom   17 type  2   force =     0.00000000    0.00000000   -0.00000352
     atom   18 type  2   force =     0.00000000    0.00000000    0.00000352
     atom   19 type  2   force =     0.00000000    0.00000000   -0.00000651
     atom   20 type  2   force =     0.00000000   -0.00000000    0.00000651
     atom   21 type  2   force =     0.00000000    0.00000000   -0.00000651
     atom   22 type  2   force =    -0.00000000    0.00000000    0.00000651
     atom   23 type  2   force =     0.00000000    0.00000000   -0.00000361
     atom   24 type  2   force =     0.00000000    0.00000000    0.00000361
     atom   25 type  2   force =     0.00000000   -0.00000352    0.00000000
     atom   26 type  2   force =     0.00000000   -0.00000651   -0.00000000
     atom   27 type  2   force =     0.00000000    0.00000352    0.00000000
     atom   28 type  2   force =     0.00000000    0.00000651    0.00000000
     atom   29 type  2   force =     0.00000000   -0.00000651   -0.00000000
     atom   30 type  2   force =    -0.00000000   -0.00000361   -0.00000000
     atom   31 type  2   force =     0.00000000    0.00000651   -0.00000000
     atom   32 type  2   force =     0.00000000    0.00000361    0.00000000
     atom   33 type  2   force =    -0.00000352    0.00000000    0.00000000
     atom   34 type  2   force =    -0.00000651    0.00000000    0.00000000
     atom   35 type  2   force =    -0.00000651    0.00000000    0.00000000
     atom   36 type  2   force =    -0.00000361    0.00000000    0.00000000
     atom   37 type  2   force =     0.00000352    0.00000000    0.00000000
     atom   38 type  2   force =     0.00000651    0.00000000    0.00000000
     atom   39 type  2   force =     0.00000651   -0.00000000   -0.00000000
     atom   40 type  2   force =     0.00000361    0.00000000    0.00000000
     The non-local contrib.  to forces
     atom    1 type  1   force =     0.00000008    0.00000008    0.00000008
     atom    2 type  1   force =     0.00000008    0.00000008   -0.00000008
     atom    3 type  1   force =     0.00000008   -0.00000008    0.00000008
     atom    4 type  1   force =     0.00000008   -0.00000008   -0.00000008
     atom    5 type  1   force =    -0.00000008    0.00000008    0.00000008
     atom    6 type  1   force =    -0.00000008    0.00000008   -0.00000008
     atom    7 type  1   force =    -0.00000008   -0.00000008    0.00000008
     atom    8 type  1   force =    -0.00000008   -0.00000008   -0.00000008
     atom    9 type  3   force =     0.00000000    0.00000000    0.00000000
     atom   10 type  3   force =     0.00000000    0.00000000    0.00000000
     atom   11 type  3   force =     0.00000000    0.00000000    0.00000000
     atom   12 type  3   force =     0.00000000    0.00000000    0.00000000
     atom   13 type  3   force =     0.00000000    0.00000000    0.00000000
     atom   14 type  3   force =     0.00000000    0.00000000    0.00000000
     atom   15 type  3   force =     0.00000000    0.00000000    0.00000000
     atom   16 type  3   force =     0.00000000    0.00000000    0.00000000
     atom   17 type  2   force =     0.00000000    0.00000000    0.00000212
     atom   18 type  2   force =     0.00000000    0.00000000   -0.00000212
     atom   19 type  2   force =     0.00000000    0.00000000   -0.00000251
     atom   20 type  2   force =     0.00000000   -0.00000000    0.00000251
     atom   21 type  2   force =     0.00000000    0.00000000   -0.00000251
     atom   22 type  2   force =     0.00000000    0.00000000    0.00000251
     atom   23 type  2   force =     0.00000000    0.00000000    0.00000297
     atom   24 type  2   force =     0.00000000    0.00000000   -0.00000297
     atom   25 type  2   force =     0.00000000    0.00000212    0.00000000
     atom   26 type  2   force =     0.00000000   -0.00000251    0.00000000
     atom   27 type  2   force =     0.00000000   -0.00000212    0.00000000
     atom   28 type  2   force =     0.00000000    0.00000251    0.00000000
     atom   29 type  2   force =     0.00000000   -0.00000251   -0.00000000
     atom   30 type  2   force =     0.00000000    0.00000297    0.00000000
     atom   31 type  2   force =     0.00000000    0.00000251    0.00000000
     atom   32 type  2   force =    -0.00000000   -0.00000297    0.00000000
     atom   33 type  2   force =     0.00000212   -0.00000000    0.00000000
     atom   34 type  2   force =    -0.00000251    0.00000000    0.00000000
     atom   35 type  2   force =    -0.00000251    0.00000000   -0.00000000
     atom   36 type  2   force =     0.00000297   -0.00000000    0.00000000
     atom   37 type  2   force =    -0.00000212    0.00000000    0.00000000
     atom   38 type  2   force =     0.00000251    0.00000000   -0.00000000
     atom   39 type  2   force =     0.00000251   -0.00000000    0.00000000
     atom   40 type  2   force =    -0.00000297    0.00000000    0.00000000
     The ionic contribution  to forces
     atom    1 type  1   force =    -0.00004935   -0.00004935   -0.00004935
     atom    2 type  1   force =    -0.00004935   -0.00004935    0.00004935
     atom    3 type  1   force =    -0.00004935    0.00004935   -0.00004935
     atom    4 type  1   force =    -0.00004935    0.00004935    0.00004935
     atom    5 type  1   force =     0.00004935   -0.00004935   -0.00004935
     atom    6 type  1   force =     0.00004935   -0.00004935    0.00004935
     atom    7 type  1   force =     0.00004935    0.00004935   -0.00004935
     atom    8 type  1   force =     0.00004935    0.00004935    0.00004935
     atom    9 type  3   force =    -0.00000000   -0.00000000   -0.00000000
     atom   10 type  3   force =     0.00000000    0.00000000    0.00000000
     atom   11 type  3   force =     0.00000000    0.00000000    0.00000000
     atom   12 type  3   force =    -0.00000000    0.00000000    0.00000000
     atom   13 type  3   force =     0.00000000    0.00000000    0.00000000
     atom   14 type  3   force =     0.00000000   -0.00000000    0.00000000
     atom   15 type  3   force =     0.00000000    0.00000000   -0.00000000
     atom   16 type  3   force =     0.00000000    0.00000000    0.00000000
     atom   17 type  2   force =    -0.00000000   -0.00000000   -0.00020855
     atom   18 type  2   force =    -0.00000000   -0.00000000    0.00020855
     atom   19 type  2   force =    -0.00000000    0.00000000   -0.00021075
     atom   20 type  2   force =    -0.00000000    0.00000000    0.00021075
     atom   21 type  2   force =     0.00000000   -0.00000000   -0.00021075
     atom   22 type  2   force =     0.00000000   -0.00000000    0.00021075
     atom   23 type  2   force =     0.00000000    0.00000000   -0.00021115
     atom   24 type  2   force =    -0.00000000   -0.00000000    0.00021115
     atom   25 type  2   force =    -0.00000000   -0.00020855   -0.00000000
     atom   26 type  2   force =    -0.00000000   -0.00021075    0.00000000
     atom   27 type  2   force =    -0.00000000    0.00020855   -0.00000000
     atom   28 type  2   force =    -0.00000000    0.00021075    0.00000000
     atom   29 type  2   force =     0.00000000   -0.00021075   -0.00000000
     atom   30 type  2   force =     0.00000000   -0.00021115    0.00000000
     atom   31 type  2   force =     0.00000000    0.00021075   -0.00000000
     atom   32 type  2   force =    -0.00000000    0.00021115   -0.00000000
     atom   33 type  2   force =    -0.00020855   -0.00000000   -0.00000000
     atom   34 type  2   force =    -0.00021075   -0.00000000    0.00000000
     atom   35 type  2   force =    -0.00021075    0.00000000   -0.00000000
     atom   36 type  2   force =    -0.00021115    0.00000000    0.00000000
     atom   37 type  2   force =     0.00020855   -0.00000000   -0.00000000
     atom   38 type  2   force =     0.00021075   -0.00000000    0.00000000
     atom   39 type  2   force =     0.00021075    0.00000000   -0.00000000
     atom   40 type  2   force =     0.00021115   -0.00000000   -0.00000000
     The local contribution  to forces
     atom    1 type  1   force =     0.00004560    0.00004560    0.00004560
     atom    2 type  1   force =     0.00004560    0.00004560   -0.00004560
     atom    3 type  1   force =     0.00004560   -0.00004560    0.00004560
     atom    4 type  1   force =     0.00004560   -0.00004560   -0.00004560
     atom    5 type  1   force =    -0.00004560    0.00004560    0.00004560
     atom    6 type  1   force =    -0.00004560    0.00004560   -0.00004560
     atom    7 type  1   force =    -0.00004560   -0.00004560    0.00004560
     atom    8 type  1   force =    -0.00004560   -0.00004560   -0.00004560
     atom    9 type  3   force =    -0.00000000    0.00000000    0.00000000
     atom   10 type  3   force =     0.00000000    0.00000000    0.00000000
     atom   11 type  3   force =    -0.00000000    0.00000000    0.00000000
     atom   12 type  3   force =    -0.00000000    0.00000000    0.00000000
     atom   13 type  3   force =     0.00000000   -0.00000000    0.00000000
     atom   14 type  3   force =     0.00000000   -0.00000000    0.00000000
     atom   15 type  3   force =     0.00000000    0.00000000    0.00000000
     atom   16 type  3   force =     0.00000000    0.00000000    0.00000000
     atom   17 type  2   force =    -0.00000000    0.00000000    0.00021023
     atom   18 type  2   force =     0.00000000    0.00000000   -0.00021023
     atom   19 type  2   force =     0.00000000   -0.00000000    0.00018632
     atom   20 type  2   force =     0.00000000    0.00000000   -0.00018632
     atom   21 type  2   force =    -0.00000000    0.00000000    0.00018632
     atom   22 type  2   force =     0.00000000   -0.00000000   -0.00018632
     atom   23 type  2   force =     0.00000000    0.00000000    0.00021661
     atom   24 type  2   force =    -0.00000000   -0.00000000   -0.00021661
     atom   25 type  2   force =    -0.00000000    0.00021023    0.00000000
     atom   26 type  2   force =     0.00000000    0.00018632    0.00000000
     atom   27 type  2   force =    -0.00000000   -0.00021023    0.00000000
     atom   28 type  2   force =     0.00000000   -0.00018632    0.00000000
     atom   29 type  2   force =    -0.00000000    0.00018632    0.00000000
     atom   30 type  2   force =     0.00000000    0.00021661    0.00000000
     atom   31 type  2   force =     0.00000000   -0.00018632    0.00000000
     atom   32 type  2   force =     0.00000000   -0.00021661   -0.00000000
     atom   33 type  2   force =     0.00021023    0.00000000    0.00000000
     atom   34 type  2   force =     0.00018632    0.00000000    0.00000000
     atom   35 type  2   force =     0.00018632    0.00000000    0.00000000
     atom   36 type  2   force =     0.00021661    0.00000000    0.00000000
     atom   37 type  2   force =    -0.00021023    0.00000000    0.00000000
     atom   38 type  2   force =    -0.00018632    0.00000000    0.00000000
     atom   39 type  2   force =    -0.00018632    0.00000000    0.00000000
     atom   40 type  2   force =    -0.00021661    0.00000000   -0.00000000
     The core correction contribution to forces
     atom    1 type  1   force =    -0.00000004   -0.00000004   -0.00000004
     atom    2 type  1   force =    -0.00000004   -0.00000004    0.00000004
     atom    3 type  1   force =    -0.00000004    0.00000004   -0.00000004
     atom    4 type  1   force =    -0.00000004    0.00000004    0.00000004
     atom    5 type  1   force =     0.00000004   -0.00000004   -0.00000004
     atom    6 type  1   force =     0.00000004   -0.00000004    0.00000004
     atom    7 type  1   force =     0.00000004    0.00000004   -0.00000004
     atom    8 type  1   force =     0.00000004    0.00000004    0.00000004
     atom    9 type  3   force =     0.00000000    0.00000000    0.00000000
     atom   10 type  3   force =    -0.00000000   -0.00000000    0.00000000
     atom   11 type  3   force =    -0.00000000    0.00000000   -0.00000000
     atom   12 type  3   force =     0.00000000   -0.00000000   -0.00000000
     atom   13 type  3   force =     0.00000000   -0.00000000   -0.00000000
     atom   14 type  3   force =    -0.00000000    0.00000000   -0.00000000
     atom   15 type  3   force =    -0.00000000   -0.00000000    0.00000000
     atom   16 type  3   force =     0.00000000    0.00000000    0.00000000
     atom   17 type  2   force =     0.00000000    0.00000000    0.00000044
     atom   18 type  2   force =     0.00000000    0.00000000   -0.00000044
     atom   19 type  2   force =     0.00000000   -0.00000000    0.00000007
     atom   20 type  2   force =     0.00000000   -0.00000000   -0.00000007
     atom   21 type  2   force =    -0.00000000    0.00000000    0.00000007
     atom   22 type  2   force =    -0.00000000    0.00000000   -0.00000007
     atom   23 type  2   force =    -0.00000000   -0.00000000    0.00000099
     atom   24 type  2   force =     0.00000000    0.00000000   -0.00000099
     atom   25 type  2   force =     0.00000000    0.00000044    0.00000000
     atom   26 type  2   force =     0.00000000    0.00000007   -0.00000000
     atom   27 type  2   force =     0.00000000   -0.00000044    0.00000000
     atom   28 type  2   force =     0.00000000   -0.00000007   -0.00000000
     atom   29 type  2   force =    -0.00000000    0.00000007    0.00000000
     atom   30 type  2   force =    -0.00000000    0.00000099   -0.00000000
     atom   31 type  2   force =    -0.00000000   -0.00000007    0.00000000
     atom   32 type  2   force =     0.00000000   -0.00000099    0.00000000
     atom   33 type  2   force =     0.00000044    0.00000000    0.00000000
     atom   34 type  2   force =     0.00000007    0.00000000   -0.00000000
     atom   35 type  2   force =     0.00000007   -0.00000000    0.00000000
     atom   36 type  2   force =     0.00000099   -0.00000000   -0.00000000
     atom   37 type  2   force =    -0.00000044    0.00000000    0.00000000
     atom   38 type  2   force =    -0.00000007    0.00000000   -0.00000000
     atom   39 type  2   force =    -0.00000007   -0.00000000    0.00000000
     atom   40 type  2   force =    -0.00000099    0.00000000    0.00000000
     The Hubbard contrib.    to forces
     atom    1 type  1   force =     0.00000000    0.00000000    0.00000000
     atom    2 type  1   force =     0.00000000    0.00000000    0.00000000
     atom    3 type  1   force =     0.00000000    0.00000000    0.00000000
     atom    4 type  1   force =     0.00000000    0.00000000    0.00000000
     atom    5 type  1   force =     0.00000000    0.00000000    0.00000000
     atom    6 type  1   force =     0.00000000    0.00000000    0.00000000
     atom    7 type  1   force =     0.00000000    0.00000000    0.00000000
     atom    8 type  1   force =     0.00000000    0.00000000    0.00000000
     atom    9 type  3   force =     0.00000000    0.00000000    0.00000000
     atom   10 type  3   force =     0.00000000    0.00000000    0.00000000
     atom   11 type  3   force =     0.00000000    0.00000000    0.00000000
     atom   12 type  3   force =     0.00000000    0.00000000    0.00000000
     atom   13 type  3   force =     0.00000000    0.00000000    0.00000000
     atom   14 type  3   force =     0.00000000    0.00000000    0.00000000
     atom   15 type  3   force =     0.00000000    0.00000000    0.00000000
     atom   16 type  3   force =     0.00000000    0.00000000    0.00000000
     atom   17 type  2   force =     0.00000000    0.00000000    0.00000000
     atom   18 type  2   force =     0.00000000    0.00000000    0.00000000
     atom   19 type  2   force =     0.00000000    0.00000000    0.00000000
     atom   20 type  2   force =     0.00000000    0.00000000    0.00000000
     atom   21 type  2   force =     0.00000000    0.00000000    0.00000000
     atom   22 type  2   force =     0.00000000    0.00000000    0.00000000
     atom   23 type  2   force =     0.00000000    0.00000000    0.00000000
     atom   24 type  2   force =     0.00000000    0.00000000    0.00000000
     atom   25 type  2   force =     0.00000000    0.00000000    0.00000000
     atom   26 type  2   force =     0.00000000    0.00000000    0.00000000
     atom   27 type  2   force =     0.00000000    0.00000000    0.00000000
     atom   28 type  2   force =     0.00000000    0.00000000    0.00000000
     atom   29 type  2   force =     0.00000000    0.00000000    0.00000000
     atom   30 type  2   force =     0.00000000    0.00000000    0.00000000
     atom   31 type  2   force =     0.00000000    0.00000000    0.00000000
     atom   32 type  2   force =     0.00000000    0.00000000    0.00000000
     atom   33 type  2   force =     0.00000000    0.00000000    0.00000000
     atom   34 type  2   force =     0.00000000    0.00000000    0.00000000
     atom   35 type  2   force =     0.00000000    0.00000000    0.00000000
     atom   36 type  2   force =     0.00000000    0.00000000    0.00000000
     atom   37 type  2   force =     0.00000000    0.00000000    0.00000000
     atom   38 type  2   force =     0.00000000    0.00000000    0.00000000
     atom   39 type  2   force =     0.00000000    0.00000000    0.00000000
     atom   40 type  2   force =     0.00000000    0.00000000    0.00000000
     The SCF correction term to forces
     atom    1 type  1   force =     0.00000367    0.00000367    0.00000367
     atom    2 type  1   force =     0.00000367    0.00000367   -0.00000367
     atom    3 type  1   force =     0.00000367   -0.00000367    0.00000367
     atom    4 type  1   force =     0.00000367   -0.00000367   -0.00000367
     atom    5 type  1   force =    -0.00000367    0.00000367    0.00000367
     atom    6 type  1   force =    -0.00000367    0.00000367   -0.00000367
     atom    7 type  1   force =    -0.00000367   -0.00000367    0.00000367
     atom    8 type  1   force =    -0.00000367   -0.00000367   -0.00000367
     atom    9 type  3   force =     0.00000000   -0.00000000    0.00000000
     atom   10 type  3   force =     0.00000000    0.00000000    0.00000000
     atom   11 type  3   force =     0.00000000    0.00000000    0.00000000
     atom   12 type  3   force =    -0.00000000   -0.00000000    0.00000000
     atom   13 type  3   force =     0.00000000    0.00000000    0.00000000
     atom   14 type  3   force =    -0.00000000    0.00000000    0.00000000
     atom   15 type  3   force =     0.00000000    0.00000000    0.00000000
     atom   16 type  3   force =    -0.00000000   -0.00000000    0.00000000
     atom   17 type  2   force =    -0.00000000    0.00000000   -0.00000774
     atom   18 type  2   force =     0.00000000   -0.00000000    0.00000774
     atom   19 type  2   force =    -0.00000000    0.00000000    0.00002037
     atom   20 type  2   force =    -0.00000000    0.00000000   -0.00002037
     atom   21 type  2   force =    -0.00000000    0.00000000    0.00002037
     atom   22 type  2   force =    -0.00000000   -0.00000000   -0.00002037
     atom   23 type  2   force =     0.00000000   -0.00000000   -0.00001302
     atom   24 type  2   force =    -0.00000000    0.00000000    0.00001302
     atom   25 type  2   force =    -0.00000000   -0.00000774    0.00000000
     atom   26 type  2   force =     0.00000000    0.00002037   -0.00000000
     atom   27 type  2   force =    -0.00000000    0.00000774    0.00000000
     atom   28 type  2   force =     0.00000000   -0.00002037   -0.00000000
     atom   29 type  2   force =    -0.00000000    0.00002037    0.00000000
     atom   30 type  2   force =    -0.00000000   -0.00001302   -0.00000000
     atom   31 type  2   force =    -0.00000000   -0.00002037    0.00000000
     atom   32 type  2   force =     0.00000000    0.00001302   -0.00000000
     atom   33 type  2   force =    -0.00000774   -0.00000000   -0.00000000
     atom   34 type  2   force =     0.00002037   -0.00000000   -0.00000000
     atom   35 type  2   force =     0.00002037    0.00000000   -0.00000000
     atom   36 type  2   force =    -0.00001302    0.00000000   -0.00000000
     atom   37 type  2   force =     0.00000774   -0.00000000   -0.00000000
     atom   38 type  2   force =    -0.00002037   -0.00000000   -0.00000000
     atom   39 type  2   force =    -0.00002037    0.00000000   -0.00000000
     atom   40 type  2   force =     0.00001302    0.00000000   -0.00000000

     Total force =     0.000026     Total SCF correction =     0.000082
     SCF correction compared to forces is large: reduce conv_thr to get better values


     Computing stress (Cartesian axis) and pressure

          total   stress  (Ry/bohr**3)                   (kbar)     P=        0.35
   0.00000239   0.00000000   0.00000000            0.35        0.00        0.00
   0.00000000   0.00000239   0.00000000            0.00        0.35        0.00
   0.00000000   0.00000000   0.00000239            0.00        0.00        0.35

     kinetic stress (kbar)   3449.97      0.00      0.00
                                0.00   3449.97      0.00
                                0.00      0.00   3449.97

     local   stress (kbar)   -371.51      0.00     -0.00
                                0.00   -371.51     -0.00
                               -0.00     -0.00   -371.51

     nonloc. stress (kbar)    896.50      0.00      0.00
                                0.00    896.50      0.00
                                0.00      0.00    896.50

     hartree stress (kbar)   1920.44     -0.00      0.00
                               -0.00   1920.44      0.00
                                0.00      0.00   1920.44

     exc-cor stress (kbar)  12007.48      0.00     -0.00
                                0.00  12007.48     -0.00
                               -0.00     -0.00  12007.48

     corecor stress (kbar) -13606.49     -0.00      0.00
                               -0.00 -13606.49     -0.00
                                0.00     -0.00 -13606.49

     ewald   stress (kbar)  -4296.03      0.00     -0.00
                                0.00  -4296.03     -0.00
                               -0.00     -0.00  -4296.03

     hubbard stress (kbar)      0.00      0.00      0.00
                                0.00      0.00      0.00
                                0.00      0.00      0.00

     DFT-D   stress (kbar)      0.00      0.00      0.00
                                0.00      0.00      0.00
                                0.00      0.00      0.00

     XDM     stress (kbar)      0.00      0.00      0.00
                                0.00      0.00      0.00
                                0.00      0.00      0.00

     dft-nl  stress (kbar)      0.00      0.00      0.00
                                0.00      0.00      0.00
                                0.00      0.00      0.00

     TS-vdW  stress (kbar)      0.00      0.00      0.00
                                0.00      0.00      0.00
                                0.00      0.00      0.00



     Writing output data file ../../out/aiida.save/

     init_run     :    211.73s CPU    214.43s WALL (       1 calls)
     electrons    :   7921.22s CPU   7981.84s WALL (       1 calls)
     forces       :    177.72s CPU    180.23s WALL (       1 calls)
     stress       :    261.66s CPU    267.40s WALL (       1 calls)

     Called by init_run:
     wfcinit      :    188.31s CPU    189.16s WALL (       1 calls)
     wfcinit:atom :      0.23s CPU      0.36s WALL (       4 calls)
     wfcinit:wfcr :    186.47s CPU    187.04s WALL (       4 calls)
     potinit      :      3.30s CPU      3.49s WALL (       1 calls)
     hinit0       :      1.38s CPU      1.44s WALL (       1 calls)

     Called by electrons:
     c_bands      :   6847.92s CPU   6866.61s WALL (      12 calls)
     sum_band     :    852.59s CPU    875.71s WALL (      12 calls)
     v_of_rho     :     22.64s CPU     24.43s WALL (      12 calls)
     v_h          :      1.83s CPU      1.90s WALL (      12 calls)
     v_xc         :     24.49s CPU     26.57s WALL (      14 calls)
     newd         :    196.20s CPU    214.64s WALL (      12 calls)
     PAW_pot      :     16.10s CPU     16.10s WALL (      12 calls)
     mix_rho      :      3.59s CPU      3.70s WALL (      12 calls)

     Called by c_bands:
     init_us_2    :      9.24s CPU      9.28s WALL (     108 calls)
     cegterg      :   6815.54s CPU   6834.19s WALL (      49 calls)

     Called by sum_band:
     sum_band:wei :      0.01s CPU      0.01s WALL (      12 calls)
     sum_band:loo :    525.96s CPU    527.33s WALL (      12 calls)
     sum_band:buf :      2.14s CPU      2.14s WALL (      48 calls)
     sum_band:ini :      4.17s CPU      4.17s WALL (      48 calls)
     sum_band:cal :    377.56s CPU    377.65s WALL (      48 calls)
     sum_band:bec :      0.13s CPU      0.13s WALL (      48 calls)
     addusdens    :    323.88s CPU    345.45s WALL (      12 calls)
     addusd:skk   :      2.07s CPU      3.50s WALL (      36 calls)
     addusd:dgemm :    225.64s CPU    242.15s WALL (      36 calls)
     addusd:qvan2 :     92.31s CPU     92.32s WALL (      36 calls)

     Called by *egterg:
     cdiaghg      :     60.59s CPU     60.60s WALL (     349 calls)
     cegterg:over :    750.31s CPU    750.45s WALL (     304 calls)
     cegterg:upda :    542.76s CPU    544.26s WALL (     304 calls)
     cegterg:last :   1249.19s CPU   1249.34s WALL (     107 calls)
     h_psi        :   2921.03s CPU   2932.97s WALL (     357 calls)
     s_psi        :   1085.52s CPU   1085.65s WALL (     357 calls)
     g_psi        :      6.72s CPU      6.72s WALL (     304 calls)

     Called by h_psi:
     h_psi:calbec :   1072.94s CPU   1073.13s WALL (     357 calls)
     vloc_psi     :    757.83s CPU    767.32s WALL (     357 calls)
     add_vuspsi   :   1086.86s CPU   1086.99s WALL (     357 calls)

     General routines
     calbec       :   1608.57s CPU   1608.89s WALL (     425 calls)
     fft          :     21.55s CPU     22.69s WALL (     180 calls)
     ffts         :      0.65s CPU      0.67s WALL (      24 calls)
     fftw         :    712.55s CPU    720.52s WALL (   67822 calls)
     interpolate  :      2.08s CPU      2.16s WALL (      12 calls)

     Parallel routines
     fft_scatt_xy :    173.80s CPU    175.68s WALL (   68026 calls)
     fft_scatt_yz :     91.17s CPU     95.06s WALL (   68026 calls)

     PAW routines
     PAW_pot      :     16.10s CPU     16.10s WALL (      12 calls)
     PAW_symme    :      0.05s CPU      0.05s WALL (      24 calls)

     PWSCF        :      2h22m CPU      2h24m WALL


   This run was terminated on:  22:39:42   2Apr2024            

=------------------------------------------------------------------------------=
   JOB DONE.
=------------------------------------------------------------------------------=
