### Running on host: fes33

     Program PWSCF v.6.7MaX starts on  2Apr2024 at 18: 1:45 

     This program is part of the open-source Quantum ESPRESSO suite
     for quantum simulation of materials; please cite
         "P. Giannozzi et al., J. Phys.:Condens. Matter 21 395502 (2009);
         "P. Giannozzi et al., J. Phys.:Condens. Matter 29 465901 (2017);
          URL http://www.quantum-espresso.org", 
     in publications or presentations arising from this work. More details at
     http://www.quantum-espresso.org/quote

     Parallel version (MPI), running on     2 processors

     MPI processes distributed on     1 nodes
     R & G space division:  proc/nbgrp/npool/nimage =       2
     Reading input from pwscf_ecutrho-320.in

     Current dimensions of program PWSCF are:
     Max number of different atomic species (ntypx) = 10
     Max number of k-points (npk) =  40000
     Max angular momentum in pseudopotentials (lmaxx) =  3
     file Pb.pbe-dn-kjpaw_psl.0.2.2.UPF: wavefunction(s)  6S renormalized

     Subspace diagonalization in iterative solution of the eigenvalue problem:
     a serial algorithm will be used

     Found symmetry operation: I + (  0.0000  0.0000  0.5000)
     This is a supercell, fractional translations are disabled
     Message from routine setup:
     using ibrav=0 with symmetry is DISCOURAGED, use correct ibrav instead

     Parallelization info
     --------------------
     sticks:   dense  smooth     PW     G-vecs:    dense   smooth      PW
     Min        7408    3707    969               678216   239884   32114
     Max        7409    3710    972               678217   239885   32115
     Sum       14817    7417   1941              1356433   479769   64229



     bravais-lattice index     =            0
     lattice parameter (alat)  =      24.1188  a.u.
     unit-cell volume          =   14030.3801 (a.u.)^3
     number of atoms/cell      =           40
     number of atomic types    =            3
     number of electrons       =       352.00
     number of Kohn-Sham states=          211
     kinetic-energy cutoff     =      40.0000  Ry
     charge density cutoff     =     320.0000  Ry
     scf convergence threshold =      8.0E-09
     mixing beta               =       0.4000
     number of iterations used =            8  plain     mixing
     Exchange-correlation= SLA  PW   PBX  PBC
                           (   1   4   3   4   0   0   0)

     celldm(1)=  24.118843  celldm(2)=   0.000000  celldm(3)=   0.000000
     celldm(4)=   0.000000  celldm(5)=   0.000000  celldm(6)=   0.000000

     crystal axes: (cart. coord. in units of alat)
               a(1) = (   1.000000   0.000000   0.000000 )  
               a(2) = (   0.000000   1.000000   0.000000 )  
               a(3) = (   0.000000   0.000000   1.000000 )  

     reciprocal axes: (cart. coord. in units 2 pi/alat)
               b(1) = (  1.000000  0.000000  0.000000 )  
               b(2) = (  0.000000  1.000000  0.000000 )  
               b(3) = (  0.000000  0.000000  1.000000 )  


     PseudoPot. # 1 for Cs read from file:
     ../../pseudo/Cs_pbe_v1.uspp.F.UPF
     MD5 check sum: 3476d69cb178dfad3ffaa59df4e07ca4
     Pseudo is Ultrasoft + core correction, Zval =  9.0
     Generated by new atomic code, or converted to UPF format
     Using radial grid of  905 points,  6 beta functions with: 
                l(1) =   0
                l(2) =   0
                l(3) =   1
                l(4) =   1
                l(5) =   2
                l(6) =   2
     Q(r) pseudized with  6 coefficients,  rinner =    1.500   1.500   1.500
                                                       1.500   1.500

     PseudoPot. # 2 for I  read from file:
     ../../pseudo/I.pbe-n-kjpaw_psl.0.2.UPF
     MD5 check sum: d4ef18d9c8f18dc85e5843bca1e50dc0
     Pseudo is Projector augmented-wave + core cor, Zval =  7.0
     Generated using "atomic" code by A. Dal Corso  v.5.0.99 svn rev. 10869
     Shape of augmentation charge: PSQ
     Using radial grid of 1247 points,  4 beta functions with: 
                l(1) =   0
                l(2) =   0
                l(3) =   1
                l(4) =   1
     Q(r) pseudized with 0 coefficients 


     PseudoPot. # 3 for Pb read from file:
     ../../pseudo/Pb.pbe-dn-kjpaw_psl.0.2.2.UPF
     MD5 check sum: 9d431e6316058b74ade52399a6cf67da
     Pseudo is Projector augmented-wave + core cor, Zval = 14.0
     Generated using "atomic" code by A. Dal Corso  v.5.0.99 svn rev. 10869
     Shape of augmentation charge: PSQ
     Using radial grid of 1281 points,  6 beta functions with: 
                l(1) =   0
                l(2) =   0
                l(3) =   1
                l(4) =   1
                l(5) =   2
                l(6) =   2
     Q(r) pseudized with 0 coefficients 


     atomic species   valence    mass     pseudopotential
        Cs             9.00   132.90545     Cs( 1.00)
        I              7.00   126.90447     I ( 1.00)
        Pb            14.00   207.20000     Pb( 1.00)

     48 Sym. Ops., with inversion, found


                                    s                        frac. trans.

      isym =  1     identity                                     

 cryst.   s( 1) = (     1          0          0      )
                  (     0          1          0      )
                  (     0          0          1      )

 cart.    s( 1) = (  1.0000000  0.0000000  0.0000000 )
                  (  0.0000000  1.0000000  0.0000000 )
                  (  0.0000000  0.0000000  1.0000000 )


      isym =  2     180 deg rotation - cart. axis [0,0,1]        

 cryst.   s( 2) = (    -1          0          0      )
                  (     0         -1          0      )
                  (     0          0          1      )

 cart.    s( 2) = ( -1.0000000  0.0000000  0.0000000 )
                  (  0.0000000 -1.0000000  0.0000000 )
                  (  0.0000000  0.0000000  1.0000000 )


      isym =  3     180 deg rotation - cart. axis [0,1,0]        

 cryst.   s( 3) = (    -1          0          0      )
                  (     0          1          0      )
                  (     0          0         -1      )

 cart.    s( 3) = ( -1.0000000  0.0000000  0.0000000 )
                  (  0.0000000  1.0000000  0.0000000 )
                  (  0.0000000  0.0000000 -1.0000000 )


      isym =  4     180 deg rotation - cart. axis [1,0,0]        

 cryst.   s( 4) = (     1          0          0      )
                  (     0         -1          0      )
                  (     0          0         -1      )

 cart.    s( 4) = (  1.0000000  0.0000000  0.0000000 )
                  (  0.0000000 -1.0000000  0.0000000 )
                  (  0.0000000  0.0000000 -1.0000000 )


      isym =  5     180 deg rotation - cart. axis [1,1,0]        

 cryst.   s( 5) = (     0          1          0      )
                  (     1          0          0      )
                  (     0          0         -1      )

 cart.    s( 5) = (  0.0000000  1.0000000  0.0000000 )
                  (  1.0000000  0.0000000  0.0000000 )
                  (  0.0000000  0.0000000 -1.0000000 )


      isym =  6     180 deg rotation - cart. axis [1,-1,0]       

 cryst.   s( 6) = (     0         -1          0      )
                  (    -1          0          0      )
                  (     0          0         -1      )

 cart.    s( 6) = (  0.0000000 -1.0000000  0.0000000 )
                  ( -1.0000000  0.0000000  0.0000000 )
                  (  0.0000000  0.0000000 -1.0000000 )


      isym =  7      90 deg rotation - cart. axis [0,0,-1]       

 cryst.   s( 7) = (     0         -1          0      )
                  (     1          0          0      )
                  (     0          0          1      )

 cart.    s( 7) = (  0.0000000  1.0000000  0.0000000 )
                  ( -1.0000000  0.0000000  0.0000000 )
                  (  0.0000000  0.0000000  1.0000000 )


      isym =  8      90 deg rotation - cart. axis [0,0,1]        

 cryst.   s( 8) = (     0          1          0      )
                  (    -1          0          0      )
                  (     0          0          1      )

 cart.    s( 8) = (  0.0000000 -1.0000000  0.0000000 )
                  (  1.0000000  0.0000000  0.0000000 )
                  (  0.0000000  0.0000000  1.0000000 )


      isym =  9     180 deg rotation - cart. axis [1,0,1]        

 cryst.   s( 9) = (     0          0          1      )
                  (     0         -1          0      )
                  (     1          0          0      )

 cart.    s( 9) = (  0.0000000  0.0000000  1.0000000 )
                  (  0.0000000 -1.0000000  0.0000000 )
                  (  1.0000000  0.0000000  0.0000000 )


      isym = 10     180 deg rotation - cart. axis [-1,0,1]       

 cryst.   s(10) = (     0          0         -1      )
                  (     0         -1          0      )
                  (    -1          0          0      )

 cart.    s(10) = (  0.0000000  0.0000000 -1.0000000 )
                  (  0.0000000 -1.0000000  0.0000000 )
                  ( -1.0000000  0.0000000  0.0000000 )


      isym = 11      90 deg rotation - cart. axis [0,1,0]        

 cryst.   s(11) = (     0          0         -1      )
                  (     0          1          0      )
                  (     1          0          0      )

 cart.    s(11) = (  0.0000000  0.0000000  1.0000000 )
                  (  0.0000000  1.0000000  0.0000000 )
                  ( -1.0000000  0.0000000  0.0000000 )


      isym = 12      90 deg rotation - cart. axis [0,-1,0]       

 cryst.   s(12) = (     0          0          1      )
                  (     0          1          0      )
                  (    -1          0          0      )

 cart.    s(12) = (  0.0000000  0.0000000 -1.0000000 )
                  (  0.0000000  1.0000000  0.0000000 )
                  (  1.0000000  0.0000000  0.0000000 )


      isym = 13     180 deg rotation - cart. axis [0,1,1]        

 cryst.   s(13) = (    -1          0          0      )
                  (     0          0          1      )
                  (     0          1          0      )

 cart.    s(13) = ( -1.0000000  0.0000000  0.0000000 )
                  (  0.0000000  0.0000000  1.0000000 )
                  (  0.0000000  1.0000000  0.0000000 )


      isym = 14     180 deg rotation - cart. axis [0,1,-1]       

 cryst.   s(14) = (    -1          0          0      )
                  (     0          0         -1      )
                  (     0         -1          0      )

 cart.    s(14) = ( -1.0000000  0.0000000  0.0000000 )
                  (  0.0000000  0.0000000 -1.0000000 )
                  (  0.0000000 -1.0000000  0.0000000 )


      isym = 15      90 deg rotation - cart. axis [-1,0,0]       

 cryst.   s(15) = (     1          0          0      )
                  (     0          0         -1      )
                  (     0          1          0      )

 cart.    s(15) = (  1.0000000  0.0000000  0.0000000 )
                  (  0.0000000  0.0000000  1.0000000 )
                  (  0.0000000 -1.0000000  0.0000000 )


      isym = 16      90 deg rotation - cart. axis [1,0,0]        

 cryst.   s(16) = (     1          0          0      )
                  (     0          0          1      )
                  (     0         -1          0      )

 cart.    s(16) = (  1.0000000  0.0000000  0.0000000 )
                  (  0.0000000  0.0000000 -1.0000000 )
                  (  0.0000000  1.0000000  0.0000000 )


      isym = 17     120 deg rotation - cart. axis [-1,-1,-1]     

 cryst.   s(17) = (     0          0          1      )
                  (     1          0          0      )
                  (     0          1          0      )

 cart.    s(17) = (  0.0000000  1.0000000  0.0000000 )
                  (  0.0000000  0.0000000  1.0000000 )
                  (  1.0000000  0.0000000  0.0000000 )


      isym = 18     120 deg rotation - cart. axis [-1,1,1]       

 cryst.   s(18) = (     0          0         -1      )
                  (    -1          0          0      )
                  (     0          1          0      )

 cart.    s(18) = (  0.0000000 -1.0000000  0.0000000 )
                  (  0.0000000  0.0000000  1.0000000 )
                  ( -1.0000000  0.0000000  0.0000000 )


      isym = 19     120 deg rotation - cart. axis [1,1,-1]       

 cryst.   s(19) = (     0          0         -1      )
                  (     1          0          0      )
                  (     0         -1          0      )

 cart.    s(19) = (  0.0000000  1.0000000  0.0000000 )
                  (  0.0000000  0.0000000 -1.0000000 )
                  ( -1.0000000  0.0000000  0.0000000 )


      isym = 20     120 deg rotation - cart. axis [1,-1,1]       

 cryst.   s(20) = (     0          0          1      )
                  (    -1          0          0      )
                  (     0         -1          0      )

 cart.    s(20) = (  0.0000000 -1.0000000  0.0000000 )
                  (  0.0000000  0.0000000 -1.0000000 )
                  (  1.0000000  0.0000000  0.0000000 )


      isym = 21     120 deg rotation - cart. axis [1,1,1]        

 cryst.   s(21) = (     0          1          0      )
                  (     0          0          1      )
                  (     1          0          0      )

 cart.    s(21) = (  0.0000000  0.0000000  1.0000000 )
                  (  1.0000000  0.0000000  0.0000000 )
                  (  0.0000000  1.0000000  0.0000000 )


      isym = 22     120 deg rotation - cart. axis [-1,1,-1]      

 cryst.   s(22) = (     0         -1          0      )
                  (     0          0         -1      )
                  (     1          0          0      )

 cart.    s(22) = (  0.0000000  0.0000000  1.0000000 )
                  ( -1.0000000  0.0000000  0.0000000 )
                  (  0.0000000 -1.0000000  0.0000000 )


      isym = 23     120 deg rotation - cart. axis [1,-1,-1]      

 cryst.   s(23) = (     0         -1          0      )
                  (     0          0          1      )
                  (    -1          0          0      )

 cart.    s(23) = (  0.0000000  0.0000000 -1.0000000 )
                  ( -1.0000000  0.0000000  0.0000000 )
                  (  0.0000000  1.0000000  0.0000000 )


      isym = 24     120 deg rotation - cart. axis [-1,-1,1]      

 cryst.   s(24) = (     0          1          0      )
                  (     0          0         -1      )
                  (    -1          0          0      )

 cart.    s(24) = (  0.0000000  0.0000000 -1.0000000 )
                  (  1.0000000  0.0000000  0.0000000 )
                  (  0.0000000 -1.0000000  0.0000000 )


      isym = 25     inversion                                    

 cryst.   s(25) = (    -1          0          0      )
                  (     0         -1          0      )
                  (     0          0         -1      )

 cart.    s(25) = ( -1.0000000  0.0000000  0.0000000 )
                  (  0.0000000 -1.0000000  0.0000000 )
                  (  0.0000000  0.0000000 -1.0000000 )


      isym = 26     inv. 180 deg rotation - cart. axis [0,0,1]   

 cryst.   s(26) = (     1          0          0      )
                  (     0          1          0      )
                  (     0          0         -1      )

 cart.    s(26) = (  1.0000000  0.0000000  0.0000000 )
                  (  0.0000000  1.0000000  0.0000000 )
                  (  0.0000000  0.0000000 -1.0000000 )


      isym = 27     inv. 180 deg rotation - cart. axis [0,1,0]   

 cryst.   s(27) = (     1          0          0      )
                  (     0         -1          0      )
                  (     0          0          1      )

 cart.    s(27) = (  1.0000000  0.0000000  0.0000000 )
                  (  0.0000000 -1.0000000  0.0000000 )
                  (  0.0000000  0.0000000  1.0000000 )


      isym = 28     inv. 180 deg rotation - cart. axis [1,0,0]   

 cryst.   s(28) = (    -1          0          0      )
                  (     0          1          0      )
                  (     0          0          1      )

 cart.    s(28) = ( -1.0000000  0.0000000  0.0000000 )
                  (  0.0000000  1.0000000  0.0000000 )
                  (  0.0000000  0.0000000  1.0000000 )


      isym = 29     inv. 180 deg rotation - cart. axis [1,1,0]   

 cryst.   s(29) = (     0         -1          0      )
                  (    -1          0          0      )
                  (     0          0          1      )

 cart.    s(29) = (  0.0000000 -1.0000000  0.0000000 )
                  ( -1.0000000  0.0000000  0.0000000 )
                  (  0.0000000  0.0000000  1.0000000 )


      isym = 30     inv. 180 deg rotation - cart. axis [1,-1,0]  

 cryst.   s(30) = (     0          1          0      )
                  (     1          0          0      )
                  (     0          0          1      )

 cart.    s(30) = (  0.0000000  1.0000000  0.0000000 )
                  (  1.0000000  0.0000000  0.0000000 )
                  (  0.0000000  0.0000000  1.0000000 )


      isym = 31     inv.  90 deg rotation - cart. axis [0,0,-1]  

 cryst.   s(31) = (     0          1          0      )
                  (    -1          0          0      )
                  (     0          0         -1      )

 cart.    s(31) = (  0.0000000 -1.0000000  0.0000000 )
                  (  1.0000000  0.0000000  0.0000000 )
                  (  0.0000000  0.0000000 -1.0000000 )


      isym = 32     inv.  90 deg rotation - cart. axis [0,0,1]   

 cryst.   s(32) = (     0         -1          0      )
                  (     1          0          0      )
                  (     0          0         -1      )

 cart.    s(32) = (  0.0000000  1.0000000  0.0000000 )
                  ( -1.0000000  0.0000000  0.0000000 )
                  (  0.0000000  0.0000000 -1.0000000 )


      isym = 33     inv. 180 deg rotation - cart. axis [1,0,1]   

 cryst.   s(33) = (     0          0         -1      )
                  (     0          1          0      )
                  (    -1          0          0      )

 cart.    s(33) = (  0.0000000  0.0000000 -1.0000000 )
                  (  0.0000000  1.0000000  0.0000000 )
                  ( -1.0000000  0.0000000  0.0000000 )


      isym = 34     inv. 180 deg rotation - cart. axis [-1,0,1]  

 cryst.   s(34) = (     0          0          1      )
                  (     0          1          0      )
                  (     1          0          0      )

 cart.    s(34) = (  0.0000000  0.0000000  1.0000000 )
                  (  0.0000000  1.0000000  0.0000000 )
                  (  1.0000000  0.0000000  0.0000000 )


      isym = 35     inv.  90 deg rotation - cart. axis [0,1,0]   

 cryst.   s(35) = (     0          0          1      )
                  (     0         -1          0      )
                  (    -1          0          0      )

 cart.    s(35) = (  0.0000000  0.0000000 -1.0000000 )
                  (  0.0000000 -1.0000000  0.0000000 )
                  (  1.0000000  0.0000000  0.0000000 )


      isym = 36     inv.  90 deg rotation - cart. axis [0,-1,0]  

 cryst.   s(36) = (     0          0         -1      )
                  (     0         -1          0      )
                  (     1          0          0      )

 cart.    s(36) = (  0.0000000  0.0000000  1.0000000 )
                  (  0.0000000 -1.0000000  0.0000000 )
                  ( -1.0000000  0.0000000  0.0000000 )


      isym = 37     inv. 180 deg rotation - cart. axis [0,1,1]   

 cryst.   s(37) = (     1          0          0      )
                  (     0          0         -1      )
                  (     0         -1          0      )

 cart.    s(37) = (  1.0000000  0.0000000  0.0000000 )
                  (  0.0000000  0.0000000 -1.0000000 )
                  (  0.0000000 -1.0000000  0.0000000 )


      isym = 38     inv. 180 deg rotation - cart. axis [0,1,-1]  

 cryst.   s(38) = (     1          0          0      )
                  (     0          0          1      )
                  (     0          1          0      )

 cart.    s(38) = (  1.0000000  0.0000000  0.0000000 )
                  (  0.0000000  0.0000000  1.0000000 )
                  (  0.0000000  1.0000000  0.0000000 )


      isym = 39     inv.  90 deg rotation - cart. axis [-1,0,0]  

 cryst.   s(39) = (    -1          0          0      )
                  (     0          0          1      )
                  (     0         -1          0      )

 cart.    s(39) = ( -1.0000000  0.0000000  0.0000000 )
                  (  0.0000000  0.0000000 -1.0000000 )
                  (  0.0000000  1.0000000  0.0000000 )


      isym = 40     inv.  90 deg rotation - cart. axis [1,0,0]   

 cryst.   s(40) = (    -1          0          0      )
                  (     0          0         -1      )
                  (     0          1          0      )

 cart.    s(40) = ( -1.0000000  0.0000000  0.0000000 )
                  (  0.0000000  0.0000000  1.0000000 )
                  (  0.0000000 -1.0000000  0.0000000 )


      isym = 41     inv. 120 deg rotation - cart. axis [-1,-1,-1]

 cryst.   s(41) = (     0          0         -1      )
                  (    -1          0          0      )
                  (     0         -1          0      )

 cart.    s(41) = (  0.0000000 -1.0000000  0.0000000 )
                  (  0.0000000  0.0000000 -1.0000000 )
                  ( -1.0000000  0.0000000  0.0000000 )


      isym = 42     inv. 120 deg rotation - cart. axis [-1,1,1]  

 cryst.   s(42) = (     0          0          1      )
                  (     1          0          0      )
                  (     0         -1          0      )

 cart.    s(42) = (  0.0000000  1.0000000  0.0000000 )
                  (  0.0000000  0.0000000 -1.0000000 )
                  (  1.0000000  0.0000000  0.0000000 )


      isym = 43     inv. 120 deg rotation - cart. axis [1,1,-1]  

 cryst.   s(43) = (     0          0          1      )
                  (    -1          0          0      )
                  (     0          1          0      )

 cart.    s(43) = (  0.0000000 -1.0000000  0.0000000 )
                  (  0.0000000  0.0000000  1.0000000 )
                  (  1.0000000  0.0000000  0.0000000 )


      isym = 44     inv. 120 deg rotation - cart. axis [1,-1,1]  

 cryst.   s(44) = (     0          0         -1      )
                  (     1          0          0      )
                  (     0          1          0      )

 cart.    s(44) = (  0.0000000  1.0000000  0.0000000 )
                  (  0.0000000  0.0000000  1.0000000 )
                  ( -1.0000000  0.0000000  0.0000000 )


      isym = 45     inv. 120 deg rotation - cart. axis [1,1,1]   

 cryst.   s(45) = (     0         -1          0      )
                  (     0          0         -1      )
                  (    -1          0          0      )

 cart.    s(45) = (  0.0000000  0.0000000 -1.0000000 )
                  ( -1.0000000  0.0000000  0.0000000 )
                  (  0.0000000 -1.0000000  0.0000000 )


      isym = 46     inv. 120 deg rotation - cart. axis [-1,1,-1] 

 cryst.   s(46) = (     0          1          0      )
                  (     0          0          1      )
                  (    -1          0          0      )

 cart.    s(46) = (  0.0000000  0.0000000 -1.0000000 )
                  (  1.0000000  0.0000000  0.0000000 )
                  (  0.0000000  1.0000000  0.0000000 )


      isym = 47     inv. 120 deg rotation - cart. axis [1,-1,-1] 

 cryst.   s(47) = (     0          1          0      )
                  (     0          0         -1      )
                  (     1          0          0      )

 cart.    s(47) = (  0.0000000  0.0000000  1.0000000 )
                  (  1.0000000  0.0000000  0.0000000 )
                  (  0.0000000 -1.0000000  0.0000000 )


      isym = 48     inv. 120 deg rotation - cart. axis [-1,-1,1] 

 cryst.   s(48) = (     0         -1          0      )
                  (     0          0          1      )
                  (     1          0          0      )

 cart.    s(48) = (  0.0000000  0.0000000  1.0000000 )
                  ( -1.0000000  0.0000000  0.0000000 )
                  (  0.0000000  1.0000000  0.0000000 )


   Cartesian axes

     site n.     atom                  positions (alat units)
         1           Cs  tau(   1) = (   0.2500001   0.2500001   0.2500001  )
         2           Cs  tau(   2) = (   0.2500001   0.2500001   0.7499999  )
         3           Cs  tau(   3) = (   0.2500001   0.7499999   0.2500001  )
         4           Cs  tau(   4) = (   0.2500001   0.7499999   0.7499999  )
         5           Cs  tau(   5) = (   0.7499999   0.2500001   0.2500001  )
         6           Cs  tau(   6) = (   0.7499999   0.2500001   0.7499999  )
         7           Cs  tau(   7) = (   0.7499999   0.7499999   0.2500001  )
         8           Cs  tau(   8) = (   0.7499999   0.7499999   0.7499999  )
         9           Pb  tau(   9) = (   0.0000000   0.0000000   0.0000000  )
        10           Pb  tau(  10) = (   0.0000000   0.0000000   0.5000000  )
        11           Pb  tau(  11) = (   0.0000000   0.5000000   0.0000000  )
        12           Pb  tau(  12) = (   0.0000000   0.5000000   0.5000000  )
        13           Pb  tau(  13) = (   0.5000000   0.0000000   0.0000000  )
        14           Pb  tau(  14) = (   0.5000000   0.0000000   0.5000000  )
        15           Pb  tau(  15) = (   0.5000000   0.5000000   0.0000000  )
        16           Pb  tau(  16) = (   0.5000000   0.5000000   0.5000000  )
        17           I   tau(  17) = (   0.0000000   0.0000000   0.2500016  )
        18           I   tau(  18) = (   0.0000000   0.0000000   0.7499984  )
        19           I   tau(  19) = (   0.0000000   0.5000000   0.2500017  )
        20           I   tau(  20) = (   0.0000000   0.5000000   0.7499983  )
        21           I   tau(  21) = (   0.5000000   0.0000000   0.2500017  )
        22           I   tau(  22) = (   0.5000000   0.0000000   0.7499983  )
        23           I   tau(  23) = (   0.5000000   0.5000000   0.2500017  )
        24           I   tau(  24) = (   0.5000000   0.5000000   0.7499983  )
        25           I   tau(  25) = (   0.0000000   0.2500016   0.0000000  )
        26           I   tau(  26) = (   0.0000000   0.2500017   0.5000000  )
        27           I   tau(  27) = (   0.0000000   0.7499984   0.0000000  )
        28           I   tau(  28) = (   0.0000000   0.7499983   0.5000000  )
        29           I   tau(  29) = (   0.5000000   0.2500017   0.0000000  )
        30           I   tau(  30) = (   0.5000000   0.2500017   0.5000000  )
        31           I   tau(  31) = (   0.5000000   0.7499983   0.0000000  )
        32           I   tau(  32) = (   0.5000000   0.7499983   0.5000000  )
        33           I   tau(  33) = (   0.2500016   0.0000000   0.0000000  )
        34           I   tau(  34) = (   0.2500017   0.0000000   0.5000000  )
        35           I   tau(  35) = (   0.2500017   0.5000000   0.0000000  )
        36           I   tau(  36) = (   0.2500017   0.5000000   0.5000000  )
        37           I   tau(  37) = (   0.7499984   0.0000000   0.0000000  )
        38           I   tau(  38) = (   0.7499983   0.0000000   0.5000000  )
        39           I   tau(  39) = (   0.7499983   0.5000000   0.0000000  )
        40           I   tau(  40) = (   0.7499983   0.5000000   0.5000000  )

   Crystallographic axes

     site n.     atom                  positions (cryst. coord.)
         1           Cs  tau(   1) = (  0.2500001  0.2500001  0.2500001  )
         2           Cs  tau(   2) = (  0.2500001  0.2500001  0.7499999  )
         3           Cs  tau(   3) = (  0.2500001  0.7499999  0.2500001  )
         4           Cs  tau(   4) = (  0.2500001  0.7499999  0.7499999  )
         5           Cs  tau(   5) = (  0.7499999  0.2500001  0.2500001  )
         6           Cs  tau(   6) = (  0.7499999  0.2500001  0.7499999  )
         7           Cs  tau(   7) = (  0.7499999  0.7499999  0.2500001  )
         8           Cs  tau(   8) = (  0.7499999  0.7499999  0.7499999  )
         9           Pb  tau(   9) = (  0.0000000  0.0000000  0.0000000  )
        10           Pb  tau(  10) = (  0.0000000  0.0000000  0.5000000  )
        11           Pb  tau(  11) = (  0.0000000  0.5000000  0.0000000  )
        12           Pb  tau(  12) = (  0.0000000  0.5000000  0.5000000  )
        13           Pb  tau(  13) = (  0.5000000  0.0000000  0.0000000  )
        14           Pb  tau(  14) = (  0.5000000  0.0000000  0.5000000  )
        15           Pb  tau(  15) = (  0.5000000  0.5000000  0.0000000  )
        16           Pb  tau(  16) = (  0.5000000  0.5000000  0.5000000  )
        17           I   tau(  17) = (  0.0000000  0.0000000  0.2500016  )
        18           I   tau(  18) = (  0.0000000  0.0000000  0.7499984  )
        19           I   tau(  19) = (  0.0000000  0.5000000  0.2500017  )
        20           I   tau(  20) = (  0.0000000  0.5000000  0.7499983  )
        21           I   tau(  21) = (  0.5000000  0.0000000  0.2500017  )
        22           I   tau(  22) = (  0.5000000  0.0000000  0.7499983  )
        23           I   tau(  23) = (  0.5000000  0.5000000  0.2500017  )
        24           I   tau(  24) = (  0.5000000  0.5000000  0.7499983  )
        25           I   tau(  25) = (  0.0000000  0.2500016  0.0000000  )
        26           I   tau(  26) = (  0.0000000  0.2500017  0.5000000  )
        27           I   tau(  27) = (  0.0000000  0.7499984  0.0000000  )
        28           I   tau(  28) = (  0.0000000  0.7499983  0.5000000  )
        29           I   tau(  29) = (  0.5000000  0.2500017  0.0000000  )
        30           I   tau(  30) = (  0.5000000  0.2500017  0.5000000  )
        31           I   tau(  31) = (  0.5000000  0.7499983  0.0000000  )
        32           I   tau(  32) = (  0.5000000  0.7499983  0.5000000  )
        33           I   tau(  33) = (  0.2500016  0.0000000  0.0000000  )
        34           I   tau(  34) = (  0.2500017  0.0000000  0.5000000  )
        35           I   tau(  35) = (  0.2500017  0.5000000  0.0000000  )
        36           I   tau(  36) = (  0.2500017  0.5000000  0.5000000  )
        37           I   tau(  37) = (  0.7499984  0.0000000  0.0000000  )
        38           I   tau(  38) = (  0.7499983  0.0000000  0.5000000  )
        39           I   tau(  39) = (  0.7499983  0.5000000  0.0000000  )
        40           I   tau(  40) = (  0.7499983  0.5000000  0.5000000  )

     number of k points=     4  Marzari-Vanderbilt smearing, width (Ry)=  0.0147
                       cart. coord. in units 2pi/alat
        k(    1) = (   0.0000000   0.0000000   0.0000000), wk =   0.0740741
        k(    2) = (   0.0000000   0.0000000   0.3333333), wk =   0.4444444
        k(    3) = (   0.0000000   0.3333333   0.3333333), wk =   0.8888889
        k(    4) = (   0.3333333   0.3333333   0.3333333), wk =   0.5925926

                       cryst. coord.
        k(    1) = (   0.0000000   0.0000000   0.0000000), wk =   0.0740741
        k(    2) = (   0.0000000   0.0000000   0.3333333), wk =   0.4444444
        k(    3) = (   0.0000000   0.3333333   0.3333333), wk =   0.8888889
        k(    4) = (   0.3333333   0.3333333   0.3333333), wk =   0.5925926

     Dense  grid:  1356433 G-vectors     FFT dimensions: ( 144, 144, 144)

     Smooth grid:   479769 G-vectors     FFT dimensions: ( 100, 100, 100)

     Dynamical RAM for                 wfc:      96.49 MB

     Dynamical RAM for     wfc (w. buffer):     482.44 MB

     Dynamical RAM for           str. fact:      31.05 MB

     Dynamical RAM for           local pot:       0.00 MB

     Dynamical RAM for          nlocal pot:     219.50 MB

     Dynamical RAM for                qrad:       4.31 MB

     Dynamical RAM for          rho,v,vnew:      65.22 MB

     Dynamical RAM for               rhoin:      21.74 MB

     Dynamical RAM for            rho*nmix:     165.58 MB

     Dynamical RAM for           G-vectors:      40.64 MB

     Dynamical RAM for          h,s,v(r/c):       8.15 MB

     Dynamical RAM for          <psi|beta>:       1.55 MB

     Dynamical RAM for                 psi:     192.98 MB

     Dynamical RAM for                hpsi:     192.98 MB

     Dynamical RAM for                spsi:     192.98 MB

     Dynamical RAM for      wfcinit/wfcrot:     250.46 MB

     Dynamical RAM for           addusdens:    2173.24 MB

     Dynamical RAM for          addusforce:    2654.55 MB

     Dynamical RAM for         addusstress:    2080.10 MB

     Estimated static dynamical RAM per process >       1.10 GB

     Estimated max dynamical RAM per process >       3.69 GB

     Estimated total dynamical RAM >       7.39 GB

     Initial potential from superposition of free atoms

     starting charge  351.66429, renormalised to  352.00000
     Starting wfcs are  272 randomized atomic wfcs
     Checking if some PAW data can be deallocated... 
       PAW data deallocated on    1 nodes for type:  3

     total cpu time spent up to now is      213.5 secs

     Self-consistent Calculation

     iteration #  1     ecut=    40.00 Ry     beta= 0.40
     Davidson diagonalization with overlap
     ethr =  1.00E-02,  avg # of iterations =  2.8

     Threshold (ethr) on eigenvalues was too large:
     Diagonalizing with lowered threshold

     Davidson diagonalization with overlap
     ethr =  2.57E-04,  avg # of iterations =  8.8

     total cpu time spent up to now is     1242.7 secs

     total energy              =  -16565.69705175 Ry
     estimated scf accuracy    <       0.82158657 Ry

     iteration #  2     ecut=    40.00 Ry     beta= 0.40
     Davidson diagonalization with overlap
     ethr =  2.33E-04,  avg # of iterations =  2.0

     total cpu time spent up to now is     1792.5 secs

     total energy              =  -16565.82418939 Ry
     estimated scf accuracy    <       0.05288766 Ry

     iteration #  3     ecut=    40.00 Ry     beta= 0.40
     Davidson diagonalization with overlap
     ethr =  1.50E-05,  avg # of iterations = 16.5

     total cpu time spent up to now is     2701.7 secs

     total energy              =  -16565.85188841 Ry
     estimated scf accuracy    <       0.01518560 Ry

     iteration #  4     ecut=    40.00 Ry     beta= 0.40
     Davidson diagonalization with overlap
     c_bands:  1 eigenvalues not converged
     ethr =  4.31E-06,  avg # of iterations = 13.2

     total cpu time spent up to now is     3289.4 secs

     total energy              =  -16565.85456823 Ry
     estimated scf accuracy    <       0.00222286 Ry

     iteration #  5     ecut=    40.00 Ry     beta= 0.40
     Davidson diagonalization with overlap
     c_bands:  1 eigenvalues not converged
     ethr =  6.31E-07,  avg # of iterations =  9.2

     total cpu time spent up to now is     3882.8 secs

     total energy              =  -16565.85506927 Ry
     estimated scf accuracy    <       0.00029444 Ry

     iteration #  6     ecut=    40.00 Ry     beta= 0.40
     Davidson diagonalization with overlap
     ethr =  8.36E-08,  avg # of iterations = 10.2

     total cpu time spent up to now is     4497.0 secs

     total energy              =  -16565.85515942 Ry
     estimated scf accuracy    <       0.00006936 Ry

     iteration #  7     ecut=    40.00 Ry     beta= 0.40
     Davidson diagonalization with overlap
     ethr =  1.97E-08,  avg # of iterations =  4.5

     total cpu time spent up to now is     5146.0 secs

     total energy              =  -16565.85518044 Ry
     estimated scf accuracy    <       0.00000856 Ry

     iteration #  8     ecut=    40.00 Ry     beta= 0.40
     Davidson diagonalization with overlap
     ethr =  2.43E-09,  avg # of iterations =  5.2

     total cpu time spent up to now is     5777.6 secs

     total energy              =  -16565.85518325 Ry
     estimated scf accuracy    <       0.00000191 Ry

     iteration #  9     ecut=    40.00 Ry     beta= 0.40
     Davidson diagonalization with overlap
     ethr =  5.42E-10,  avg # of iterations =  5.0

     total cpu time spent up to now is     6550.1 secs

     total energy              =  -16565.85518401 Ry
     estimated scf accuracy    <       0.00000067 Ry

     iteration # 10     ecut=    40.00 Ry     beta= 0.40
     Davidson diagonalization with overlap
     ethr =  1.90E-10,  avg # of iterations =  2.5

     total cpu time spent up to now is     7087.5 secs

     total energy              =  -16565.85518409 Ry
     estimated scf accuracy    <       0.00000015 Ry

     iteration # 11     ecut=    40.00 Ry     beta= 0.40
     Davidson diagonalization with overlap
     ethr =  4.35E-11,  avg # of iterations =  6.0

     total cpu time spent up to now is     7678.1 secs

     End of self-consistent calculation

          k = 0.0000 0.0000 0.0000 ( 60005 PWs)   bands (ev):

   -18.6198 -18.6196 -18.6196 -18.6196 -18.6193 -18.6193 -18.6193 -18.6192
   -13.9061 -13.9061 -13.9061 -13.9060 -13.9060 -13.9005 -13.9005 -13.9005
   -13.8950 -13.8949 -13.8949 -13.8892 -13.8892 -13.8891 -13.8891 -13.8891
   -13.8544 -13.8544 -13.8544 -13.8543 -13.8543 -13.8543 -13.8542 -13.8542
   -13.8542 -13.8541 -13.8541 -13.8541 -13.8540 -13.8540 -13.8540 -13.8540
   -13.8540 -13.8540 -13.8537 -13.8537 -13.8537 -13.8537 -13.8537 -13.8537
    -9.3424  -9.1456  -9.1456  -9.1456  -8.9038  -8.9038  -8.9038  -8.8420
    -8.8420  -8.8420  -8.8420  -8.8420  -8.8420  -8.8415  -8.8415  -8.8415
    -8.8364  -8.8364  -8.8364  -8.6151  -8.6151  -8.6130  -8.6130  -8.6130
    -5.6598  -5.4083  -5.4083  -5.4083  -5.3953  -5.3953  -5.3953  -5.3951
    -5.3951  -5.3951  -5.3951  -5.3951  -5.3951  -5.3913  -5.3913  -5.3913
    -5.3913  -5.3913  -5.3913  -5.3881  -5.3881  -5.3881  -5.3871  -5.3871
    -5.3871  -5.1313  -5.1313  -5.1313  -4.6254  -4.6254  -4.6254  -4.1126
    -0.6229  -0.6229  -0.6229  -0.5199  -0.5199  -0.5199  -0.5199  -0.5199
    -0.5199  -0.3838  -0.3838  -0.3838   0.6070   0.6070   0.6070   0.7389
     0.7389   0.7389   0.8907   0.8907   0.8907   1.2093   1.2093   1.2093
     1.2093   1.2093   1.2093   1.3066   1.3066   1.3066   1.3066   1.3066
     1.3066   1.3551   1.3551   1.3551   1.3551   1.3551   1.3551   1.4195
     1.4195   1.4195   1.4306   1.4306   1.4306   1.4381   1.4381   1.5489
     1.5489   1.5489   1.5746   1.5746   1.5746   1.5746   1.5746   1.5746
     1.6633   1.6633   1.6633   1.8952   1.8952   1.8952   2.0488   2.0488
     2.0488   2.0610   2.0610   2.0610   2.3308   2.3308   2.3308   2.7671
     4.2013   4.2013   4.2013   4.6287   4.6287   4.6287   4.6287   4.6287
     4.6287   4.9604   4.9604   4.9604   5.8992   6.7504   6.9739   6.9739
     7.3223   7.3223   7.3223   7.3825   7.3825   7.3826   7.5514   7.5514
     7.5514   7.6018   7.6018   7.6019   7.7693   7.7693   7.7696   7.8687
     7.8689   7.9115   7.9115

     occupation numbers 
     1.0000   1.0000   1.0000   1.0000   1.0000   1.0000   1.0000   1.0000
     1.0000   1.0000   1.0000   1.0000   1.0000   1.0000   1.0000   1.0000
     1.0000   1.0000   1.0000   1.0000   1.0000   1.0000   1.0000   1.0000
     1.0000   1.0000   1.0000   1.0000   1.0000   1.0000   1.0000   1.0000
     1.0000   1.0000   1.0000   1.0000   1.0000   1.0000   1.0000   1.0000
     1.0000   1.0000   1.0000   1.0000   1.0000   1.0000   1.0000   1.0000
     1.0000   1.0000   1.0000   1.0000   1.0000   1.0000   1.0000   1.0000
     1.0000   1.0000   1.0000   1.0000   1.0000   1.0000   1.0000   1.0000
     1.0000   1.0000   1.0000   1.0000   1.0000   1.0000   1.0000   1.0000
     1.0000   1.0000   1.0000   1.0000   1.0000   1.0000   1.0000   1.0000
     1.0000   1.0000   1.0000   1.0000   1.0000   1.0000   1.0000   1.0000
     1.0000   1.0000   1.0000   1.0000   1.0000   1.0000   1.0000   1.0000
     1.0000   1.0000   1.0000   1.0000   1.0000   1.0000   1.0000   1.0000
     1.0000   1.0000   1.0000   1.0000   1.0000   1.0000   1.0000   1.0000
     1.0000   1.0000   1.0000   1.0000   1.0000   1.0000   1.0000   1.0000
     1.0000   1.0000   1.0000   1.0000   1.0000   1.0000   1.0000   1.0000
     1.0000   1.0000   1.0000   1.0000   1.0000   1.0000   1.0000   1.0000
     1.0000   1.0000   1.0000   1.0000   1.0000   1.0000   1.0000   1.0000
     1.0000   1.0000   1.0000   1.0000   1.0000   1.0000   1.0000   1.0000
     1.0000   1.0000   1.0000   1.0000   1.0000   1.0000   1.0000   1.0000
     1.0000   1.0000   1.0000   1.0000   1.0000   1.0000   1.0014   1.0014
     1.0014   1.0019   1.0019   1.0019   1.0763   1.0763   1.0763   0.1103
     0.0000   0.0000   0.0000   0.0000   0.0000   0.0000   0.0000   0.0000
     0.0000   0.0000   0.0000   0.0000   0.0000   0.0000   0.0000   0.0000
     0.0000   0.0000   0.0000   0.0000   0.0000   0.0000   0.0000   0.0000
     0.0000   0.0000   0.0000   0.0000   0.0000   0.0000   0.0000   0.0000
     0.0000   0.0000   0.0000

          k = 0.0000 0.0000 0.3333 ( 59944 PWs)   bands (ev):

   -18.6197 -18.6196 -18.6195 -18.6195 -18.6194 -18.6194 -18.6193 -18.6192
   -13.9060 -13.9060 -13.9041 -13.9041 -13.9032 -13.9014 -13.9014 -13.8977
   -13.8977 -13.8940 -13.8940 -13.8920 -13.8912 -13.8911 -13.8892 -13.8891
   -13.8544 -13.8544 -13.8543 -13.8543 -13.8542 -13.8542 -13.8542 -13.8542
   -13.8541 -13.8541 -13.8541 -13.8541 -13.8540 -13.8540 -13.8540 -13.8540
   -13.8539 -13.8539 -13.8538 -13.8538 -13.8537 -13.8537 -13.8537 -13.8536
    -9.3068  -9.2150  -9.1100  -9.1100  -9.0125  -9.0125  -8.8879  -8.8542
    -8.8419  -8.8419  -8.8416  -8.8416  -8.8406  -8.8406  -8.8378  -8.8378
    -8.7644  -8.7363  -8.7363  -8.6578  -8.6452  -8.6452  -8.6146  -8.6135
    -5.5402  -5.4050  -5.4050  -5.4033  -5.3984  -5.3984  -5.3943  -5.3943
    -5.3942  -5.3942  -5.3941  -5.3941  -5.3931  -5.3927  -5.3923  -5.3923
    -5.3923  -5.3923  -5.3905  -5.3905  -5.3898  -5.3898  -5.3889  -5.3889
    -5.3885  -5.2780  -5.0203  -5.0203  -4.7706  -4.7706  -4.5191  -4.2669
    -0.5988  -0.5988  -0.5474  -0.5474  -0.4887  -0.4887  -0.4210  -0.4210
    -0.2305  -0.1328  -0.1328   0.0067   0.5595   0.6391   0.6696   0.6696
     0.7051   0.7137   0.7137   0.7994   0.7994   0.8133   0.8133   0.8999
     0.9758   0.9758   1.2021   1.2021   1.2216   1.2216   1.3186   1.3186
     1.3429   1.3429   1.3757   1.3757   1.4108   1.4108   1.4325   1.4362
     1.4505   1.5016   1.5016   1.5094   1.5094   1.5104   1.5104   1.5152
     1.5537   1.5537   1.5898   1.5898   1.6016   1.6016   1.6246   1.6312
     1.6312   1.6566   1.6754   1.6754   1.9183   1.9183   1.9295   1.9295
     1.9380   1.9380   2.0519   2.0580   2.0773   2.0774   2.3567   2.4807
     4.3206   4.3206   4.5328   4.5328   4.7212   4.7212   4.8877   4.8877
     5.2136   5.5309   5.5309   5.8177   6.1516   6.7133   6.7866   6.9436
     7.0553   7.0553   7.1127   7.1798   7.3952   7.4483   7.4483   7.4507
     7.4528   7.4680   7.5609   7.5610   7.5927   7.5927   7.6737   7.7353
     7.7353   7.7749   7.7749

     occupation numbers 
     1.0000   1.0000   1.0000   1.0000   1.0000   1.0000   1.0000   1.0000
     1.0000   1.0000   1.0000   1.0000   1.0000   1.0000   1.0000   1.0000
     1.0000   1.0000   1.0000   1.0000   1.0000   1.0000   1.0000   1.0000
     1.0000   1.0000   1.0000   1.0000   1.0000   1.0000   1.0000   1.0000
     1.0000   1.0000   1.0000   1.0000   1.0000   1.0000   1.0000   1.0000
     1.0000   1.0000   1.0000   1.0000   1.0000   1.0000   1.0000   1.0000
     1.0000   1.0000   1.0000   1.0000   1.0000   1.0000   1.0000   1.0000
     1.0000   1.0000   1.0000   1.0000   1.0000   1.0000   1.0000   1.0000
     1.0000   1.0000   1.0000   1.0000   1.0000   1.0000   1.0000   1.0000
     1.0000   1.0000   1.0000   1.0000   1.0000   1.0000   1.0000   1.0000
     1.0000   1.0000   1.0000   1.0000   1.0000   1.0000   1.0000   1.0000
     1.0000   1.0000   1.0000   1.0000   1.0000   1.0000   1.0000   1.0000
     1.0000   1.0000   1.0000   1.0000   1.0000   1.0000   1.0000   1.0000
     1.0000   1.0000   1.0000   1.0000   1.0000   1.0000   1.0000   1.0000
     1.0000   1.0000   1.0000   1.0000   1.0000   1.0000   1.0000   1.0000
     1.0000   1.0000   1.0000   1.0000   1.0000   1.0000   1.0000   1.0000
     1.0000   1.0000   1.0000   1.0000   1.0000   1.0000   1.0000   1.0000
     1.0000   1.0000   1.0000   1.0000   1.0000   1.0000   1.0000   1.0000
     1.0000   1.0000   1.0000   1.0000   1.0000   1.0000   1.0000   1.0000
     1.0000   1.0000   1.0000   1.0000   1.0000   1.0000   1.0000   1.0000
     1.0000   1.0000   1.0000   1.0000   1.0000   1.0000   1.0001   1.0001
     1.0001   1.0001   1.0015   1.0017   1.0026   1.0026   1.0826   0.9717
     0.0000   0.0000   0.0000   0.0000   0.0000   0.0000   0.0000   0.0000
     0.0000   0.0000   0.0000   0.0000   0.0000   0.0000   0.0000   0.0000
     0.0000   0.0000   0.0000   0.0000   0.0000   0.0000   0.0000   0.0000
     0.0000   0.0000   0.0000   0.0000   0.0000   0.0000   0.0000   0.0000
     0.0000   0.0000   0.0000

          k = 0.0000 0.3333 0.3333 ( 59892 PWs)   bands (ev):

   -18.6197 -18.6196 -18.6196 -18.6195 -18.6195 -18.6194 -18.6194 -18.6193
   -13.9046 -13.9042 -13.9041 -13.9019 -13.9019 -13.9018 -13.8986 -13.8985
   -13.8968 -13.8968 -13.8935 -13.8935 -13.8934 -13.8911 -13.8911 -13.8906
   -13.8543 -13.8543 -13.8543 -13.8542 -13.8542 -13.8542 -13.8542 -13.8542
   -13.8541 -13.8541 -13.8541 -13.8540 -13.8540 -13.8540 -13.8540 -13.8540
   -13.8540 -13.8539 -13.8539 -13.8538 -13.8538 -13.8538 -13.8537 -13.8537
    -9.2718  -9.1806  -9.1806  -9.0895  -9.0772  -8.9878  -8.9878  -8.9239
    -8.8414  -8.8409  -8.8409  -8.8388  -8.7877  -8.7829  -8.7667  -8.7667
    -8.7473  -8.7473  -8.7138  -8.6744  -8.6713  -8.6449  -8.6449  -8.6372
    -5.4307  -5.4040  -5.3982  -5.3982  -5.3980  -5.3978  -5.3978  -5.3955
    -5.3951  -5.3948  -5.3948  -5.3936  -5.3936  -5.3933  -5.3928  -5.3916
    -5.3915  -5.3915  -5.3912  -5.3912  -5.3904  -5.3897  -5.3894  -5.3891
    -5.3891  -5.1649  -5.1649  -4.9144  -4.9123  -4.6647  -4.6647  -4.4165
    -0.5731  -0.5182  -0.5182  -0.4553  -0.2843  -0.1685  -0.1685  -0.1632
    -0.1319  -0.0404  -0.0387  -0.0387   0.5631   0.5767   0.5767   0.6335
     0.6919   0.6919   0.7232   0.7292   0.7292   0.7504   0.7716   0.7873
     0.8184   0.9792   0.9792   1.0453   1.0479   1.1470   1.1841   1.1841
     1.2201   1.2201   1.3296   1.3470   1.3631   1.3978   1.3978   1.4093
     1.4839   1.5229   1.5274   1.5274   1.5300   1.5496   1.5496   1.5639
     1.5821   1.5858   1.5935   1.5935   1.6234   1.6234   1.6699   1.6897
     1.6897   1.7086   1.7363   1.7540   1.7540   1.7889   1.8636   1.8897
     1.8958   1.9438   1.9438   1.9459   1.9783   2.0855   2.0855   2.1769
     4.4312   4.6307   4.6307   4.8083   5.2446   5.3322   5.4482   5.4482
     5.5705   5.6322   5.7470   5.7470   6.3628   6.7714   6.7714   6.8927
     6.8927   6.9102   6.9612   7.0783   7.1650   7.1650   7.1962   7.2783
     7.2927   7.3401   7.3487   7.4160   7.4391   7.4391   7.5699   7.5845
     7.5845   7.6230   7.6954

     occupation numbers 
     1.0000   1.0000   1.0000   1.0000   1.0000   1.0000   1.0000   1.0000
     1.0000   1.0000   1.0000   1.0000   1.0000   1.0000   1.0000   1.0000
     1.0000   1.0000   1.0000   1.0000   1.0000   1.0000   1.0000   1.0000
     1.0000   1.0000   1.0000   1.0000   1.0000   1.0000   1.0000   1.0000
     1.0000   1.0000   1.0000   1.0000   1.0000   1.0000   1.0000   1.0000
     1.0000   1.0000   1.0000   1.0000   1.0000   1.0000   1.0000   1.0000
     1.0000   1.0000   1.0000   1.0000   1.0000   1.0000   1.0000   1.0000
     1.0000   1.0000   1.0000   1.0000   1.0000   1.0000   1.0000   1.0000
     1.0000   1.0000   1.0000   1.0000   1.0000   1.0000   1.0000   1.0000
     1.0000   1.0000   1.0000   1.0000   1.0000   1.0000   1.0000   1.0000
     1.0000   1.0000   1.0000   1.0000   1.0000   1.0000   1.0000   1.0000
     1.0000   1.0000   1.0000   1.0000   1.0000   1.0000   1.0000   1.0000
     1.0000   1.0000   1.0000   1.0000   1.0000   1.0000   1.0000   1.0000
     1.0000   1.0000   1.0000   1.0000   1.0000   1.0000   1.0000   1.0000
     1.0000   1.0000   1.0000   1.0000   1.0000   1.0000   1.0000   1.0000
     1.0000   1.0000   1.0000   1.0000   1.0000   1.0000   1.0000   1.0000
     1.0000   1.0000   1.0000   1.0000   1.0000   1.0000   1.0000   1.0000
     1.0000   1.0000   1.0000   1.0000   1.0000   1.0000   1.0000   1.0000
     1.0000   1.0000   1.0000   1.0000   1.0000   1.0000   1.0000   1.0000
     1.0000   1.0000   1.0000   1.0000   1.0000   1.0000   1.0000   1.0000
     1.0000   1.0000   1.0000   1.0000   1.0000   1.0000   1.0000   1.0000
     1.0000   1.0001   1.0001   1.0001   1.0003   1.0031   1.0031   1.0157
     0.0000   0.0000   0.0000   0.0000   0.0000   0.0000   0.0000   0.0000
     0.0000   0.0000   0.0000   0.0000   0.0000   0.0000   0.0000   0.0000
     0.0000   0.0000   0.0000   0.0000   0.0000   0.0000   0.0000   0.0000
     0.0000   0.0000   0.0000   0.0000   0.0000   0.0000   0.0000   0.0000
     0.0000   0.0000   0.0000

          k = 0.3333 0.3333 0.3333 ( 59956 PWs)   bands (ev):

   -18.6196 -18.6195 -18.6195 -18.6195 -18.6194 -18.6194 -18.6194 -18.6193
   -13.9019 -13.9019 -13.9019 -13.9018 -13.9018 -13.8991 -13.8991 -13.8991
   -13.8963 -13.8963 -13.8963 -13.8935 -13.8935 -13.8935 -13.8934 -13.8934
   -13.8542 -13.8542 -13.8542 -13.8542 -13.8542 -13.8542 -13.8541 -13.8541
   -13.8541 -13.8540 -13.8540 -13.8540 -13.8540 -13.8540 -13.8540 -13.8540
   -13.8540 -13.8540 -13.8539 -13.8539 -13.8539 -13.8538 -13.8538 -13.8538
    -9.2375  -9.1479  -9.1479  -9.1479  -9.0617  -9.0617  -9.0617  -8.9890
    -8.7865  -8.7865  -8.7865  -8.7841  -8.7841  -8.7680  -8.7680  -8.7680
    -8.7317  -8.7317  -8.7317  -8.6736  -8.6736  -8.6721  -8.6721  -8.6721
    -5.4017  -5.4017  -5.3973  -5.3971  -5.3971  -5.3971  -5.3971  -5.3971
    -5.3971  -5.3954  -5.3954  -5.3954  -5.3950  -5.3950  -5.3943  -5.3943
    -5.3943  -5.3896  -5.3896  -5.3896  -5.3879  -5.3877  -5.3877  -5.3877
    -5.3064  -5.0559  -5.0559  -5.0559  -4.8085  -4.8085  -4.8085  -4.5627
    -0.2568  -0.2568  -0.1966  -0.1966  -0.1966  -0.0835  -0.0835  -0.0835
    -0.0803  -0.0803  -0.0803  -0.0383   0.5891   0.5891   0.5891   0.5927
     0.5927   0.5927   0.6477   0.6477   0.6477   0.6621   0.6621   0.6868
     0.9541   0.9541   0.9950   0.9950   0.9950   1.1265   1.1265   1.1265
     1.1689   1.1689   1.1689   1.2652   1.2652   1.2652   1.3137   1.3137
     1.4224   1.4394   1.4394   1.4394   1.4835   1.4835   1.4835   1.6646
     1.6768   1.6768   1.6768   1.7058   1.7058   1.7129   1.7129   1.7129
     1.7299   1.7299   1.7299   1.7351   1.7655   1.7655   1.7655   1.8205
     1.8205   1.8205   1.8781   1.8781   1.8968   1.8968   1.8968   1.9193
     5.3242   5.3242   5.4395   5.4875   5.4875   5.4875   5.5528   5.5528
     5.5528   5.6709   5.6709   5.6709   6.5112   6.8098   6.8098   6.8098
     6.8437   6.8437   6.8437   7.0062   7.0062   7.0063   7.1143   7.1405
     7.1405   7.1795   7.1796   7.1796   7.1839   7.2792   7.2792   7.2792
     7.3992   7.3992   7.6475

     occupation numbers 
     1.0000   1.0000   1.0000   1.0000   1.0000   1.0000   1.0000   1.0000
     1.0000   1.0000   1.0000   1.0000   1.0000   1.0000   1.0000   1.0000
     1.0000   1.0000   1.0000   1.0000   1.0000   1.0000   1.0000   1.0000
     1.0000   1.0000   1.0000   1.0000   1.0000   1.0000   1.0000   1.0000
     1.0000   1.0000   1.0000   1.0000   1.0000   1.0000   1.0000   1.0000
     1.0000   1.0000   1.0000   1.0000   1.0000   1.0000   1.0000   1.0000
     1.0000   1.0000   1.0000   1.0000   1.0000   1.0000   1.0000   1.0000
     1.0000   1.0000   1.0000   1.0000   1.0000   1.0000   1.0000   1.0000
     1.0000   1.0000   1.0000   1.0000   1.0000   1.0000   1.0000   1.0000
     1.0000   1.0000   1.0000   1.0000   1.0000   1.0000   1.0000   1.0000
     1.0000   1.0000   1.0000   1.0000   1.0000   1.0000   1.0000   1.0000
     1.0000   1.0000   1.0000   1.0000   1.0000   1.0000   1.0000   1.0000
     1.0000   1.0000   1.0000   1.0000   1.0000   1.0000   1.0000   1.0000
     1.0000   1.0000   1.0000   1.0000   1.0000   1.0000   1.0000   1.0000
     1.0000   1.0000   1.0000   1.0000   1.0000   1.0000   1.0000   1.0000
     1.0000   1.0000   1.0000   1.0000   1.0000   1.0000   1.0000   1.0000
     1.0000   1.0000   1.0000   1.0000   1.0000   1.0000   1.0000   1.0000
     1.0000   1.0000   1.0000   1.0000   1.0000   1.0000   1.0000   1.0000
     1.0000   1.0000   1.0000   1.0000   1.0000   1.0000   1.0000   1.0000
     1.0000   1.0000   1.0000   1.0000   1.0000   1.0000   1.0000   1.0000
     1.0000   1.0000   1.0000   1.0000   1.0000   1.0000   1.0000   1.0000
     1.0000   1.0000   1.0000   1.0000   1.0000   1.0000   1.0000   1.0001
     0.0000   0.0000   0.0000   0.0000   0.0000   0.0000   0.0000   0.0000
     0.0000   0.0000   0.0000   0.0000   0.0000   0.0000   0.0000   0.0000
     0.0000   0.0000   0.0000   0.0000   0.0000   0.0000   0.0000   0.0000
     0.0000   0.0000   0.0000   0.0000   0.0000   0.0000   0.0000   0.0000
     0.0000   0.0000   0.0000

     the Fermi energy is     2.6510 ev

!    total energy              =  -16565.85518413 Ry
     estimated scf accuracy    <          2.6E-09 Ry
     smearing contrib. (-TS)   =       0.00294146 Ry
     internal energy E=F+TS    =  -16565.85812559 Ry

     The total energy is F=E-TS. E is the sum of the following terms:
     one-electron contribution =    -767.65720785 Ry
     hartree contribution      =     549.49460855 Ry
     xc contribution           =   -1598.31259522 Ry
     ewald contribution        =   -1229.22289246 Ry
     one-center paw contrib.   =  -13520.16003860 Ry
      -> PAW hartree energy AE =     824.05437147 Ry
      -> PAW hartree energy PS =    -822.26841265 Ry
      -> PAW xc energy AE      =   -7623.07959018 Ry
      -> PAW xc energy PS      =     511.66683240 Ry
      -> total E_H with PAW    =     551.28056737 Ry
      -> total E_XC with PAW   =   -8709.72535300 Ry

     convergence has been achieved in  11 iterations

     Forces acting on atoms (cartesian axes, Ry/au):

     atom    1 type  1   force =    -0.00000010   -0.00000010   -0.00000010
     atom    2 type  1   force =    -0.00000010   -0.00000010    0.00000010
     atom    3 type  1   force =    -0.00000010    0.00000010   -0.00000010
     atom    4 type  1   force =    -0.00000010    0.00000010    0.00000010
     atom    5 type  1   force =     0.00000010   -0.00000010   -0.00000010
     atom    6 type  1   force =     0.00000010   -0.00000010    0.00000010
     atom    7 type  1   force =     0.00000010    0.00000010   -0.00000010
     atom    8 type  1   force =     0.00000010    0.00000010    0.00000010
     atom    9 type  3   force =     0.00000000    0.00000000    0.00000000
     atom   10 type  3   force =     0.00000000    0.00000000    0.00000000
     atom   11 type  3   force =     0.00000000    0.00000000    0.00000000
     atom   12 type  3   force =     0.00000000    0.00000000    0.00000000
     atom   13 type  3   force =     0.00000000    0.00000000    0.00000000
     atom   14 type  3   force =     0.00000000    0.00000000    0.00000000
     atom   15 type  3   force =     0.00000000    0.00000000    0.00000000
     atom   16 type  3   force =     0.00000000    0.00000000    0.00000000
     atom   17 type  2   force =     0.00000000    0.00000000   -0.00000345
     atom   18 type  2   force =    -0.00000000    0.00000000    0.00000345
     atom   19 type  2   force =    -0.00000000   -0.00000000   -0.00000656
     atom   20 type  2   force =     0.00000000    0.00000000    0.00000656
     atom   21 type  2   force =     0.00000000    0.00000000   -0.00000656
     atom   22 type  2   force =     0.00000000    0.00000000    0.00000656
     atom   23 type  2   force =     0.00000000    0.00000000   -0.00000369
     atom   24 type  2   force =     0.00000000    0.00000000    0.00000369
     atom   25 type  2   force =     0.00000000   -0.00000345    0.00000000
     atom   26 type  2   force =     0.00000000   -0.00000656   -0.00000000
     atom   27 type  2   force =     0.00000000    0.00000345    0.00000000
     atom   28 type  2   force =     0.00000000    0.00000656    0.00000000
     atom   29 type  2   force =    -0.00000000   -0.00000656    0.00000000
     atom   30 type  2   force =     0.00000000   -0.00000369    0.00000000
     atom   31 type  2   force =     0.00000000    0.00000656   -0.00000000
     atom   32 type  2   force =     0.00000000    0.00000369    0.00000000
     atom   33 type  2   force =    -0.00000345    0.00000000    0.00000000
     atom   34 type  2   force =    -0.00000656    0.00000000    0.00000000
     atom   35 type  2   force =    -0.00000656    0.00000000   -0.00000000
     atom   36 type  2   force =    -0.00000369   -0.00000000   -0.00000000
     atom   37 type  2   force =     0.00000345    0.00000000   -0.00000000
     atom   38 type  2   force =     0.00000656    0.00000000   -0.00000000
     atom   39 type  2   force =     0.00000656    0.00000000    0.00000000
     atom   40 type  2   force =     0.00000369    0.00000000    0.00000000
     The non-local contrib.  to forces
     atom    1 type  1   force =     0.00000014    0.00000014    0.00000014
     atom    2 type  1   force =     0.00000014    0.00000014   -0.00000014
     atom    3 type  1   force =     0.00000014   -0.00000014    0.00000014
     atom    4 type  1   force =     0.00000014   -0.00000014   -0.00000014
     atom    5 type  1   force =    -0.00000014    0.00000014    0.00000014
     atom    6 type  1   force =    -0.00000014    0.00000014   -0.00000014
     atom    7 type  1   force =    -0.00000014   -0.00000014    0.00000014
     atom    8 type  1   force =    -0.00000014   -0.00000014   -0.00000014
     atom    9 type  3   force =     0.00000000    0.00000000    0.00000000
     atom   10 type  3   force =     0.00000000    0.00000000    0.00000000
     atom   11 type  3   force =     0.00000000    0.00000000    0.00000000
     atom   12 type  3   force =     0.00000000    0.00000000    0.00000000
     atom   13 type  3   force =     0.00000000    0.00000000    0.00000000
     atom   14 type  3   force =     0.00000000    0.00000000    0.00000000
     atom   15 type  3   force =     0.00000000    0.00000000    0.00000000
     atom   16 type  3   force =     0.00000000    0.00000000    0.00000000
     atom   17 type  2   force =     0.00000000    0.00000000    0.00000200
     atom   18 type  2   force =     0.00000000    0.00000000   -0.00000200
     atom   19 type  2   force =     0.00000000    0.00000000   -0.00000250
     atom   20 type  2   force =     0.00000000    0.00000000    0.00000250
     atom   21 type  2   force =     0.00000000    0.00000000   -0.00000250
     atom   22 type  2   force =     0.00000000    0.00000000    0.00000250
     atom   23 type  2   force =     0.00000000    0.00000000    0.00000299
     atom   24 type  2   force =     0.00000000    0.00000000   -0.00000299
     atom   25 type  2   force =     0.00000000    0.00000200    0.00000000
     atom   26 type  2   force =     0.00000000   -0.00000250    0.00000000
     atom   27 type  2   force =     0.00000000   -0.00000200    0.00000000
     atom   28 type  2   force =     0.00000000    0.00000250    0.00000000
     atom   29 type  2   force =     0.00000000   -0.00000250    0.00000000
     atom   30 type  2   force =    -0.00000000    0.00000299   -0.00000000
     atom   31 type  2   force =     0.00000000    0.00000250    0.00000000
     atom   32 type  2   force =     0.00000000   -0.00000299    0.00000000
     atom   33 type  2   force =     0.00000200    0.00000000    0.00000000
     atom   34 type  2   force =    -0.00000250    0.00000000    0.00000000
     atom   35 type  2   force =    -0.00000250    0.00000000    0.00000000
     atom   36 type  2   force =     0.00000299    0.00000000    0.00000000
     atom   37 type  2   force =    -0.00000200    0.00000000    0.00000000
     atom   38 type  2   force =     0.00000250    0.00000000    0.00000000
     atom   39 type  2   force =     0.00000250    0.00000000    0.00000000
     atom   40 type  2   force =    -0.00000299    0.00000000    0.00000000
     The ionic contribution  to forces
     atom    1 type  1   force =    -0.00004935   -0.00004935   -0.00004935
     atom    2 type  1   force =    -0.00004935   -0.00004935    0.00004935
     atom    3 type  1   force =    -0.00004935    0.00004935   -0.00004935
     atom    4 type  1   force =    -0.00004935    0.00004935    0.00004935
     atom    5 type  1   force =     0.00004935   -0.00004935   -0.00004935
     atom    6 type  1   force =     0.00004935   -0.00004935    0.00004935
     atom    7 type  1   force =     0.00004935    0.00004935   -0.00004935
     atom    8 type  1   force =     0.00004935    0.00004935    0.00004935
     atom    9 type  3   force =    -0.00000000   -0.00000000   -0.00000000
     atom   10 type  3   force =     0.00000000    0.00000000    0.00000000
     atom   11 type  3   force =     0.00000000    0.00000000    0.00000000
     atom   12 type  3   force =    -0.00000000    0.00000000    0.00000000
     atom   13 type  3   force =     0.00000000    0.00000000    0.00000000
     atom   14 type  3   force =     0.00000000   -0.00000000    0.00000000
     atom   15 type  3   force =     0.00000000    0.00000000   -0.00000000
     atom   16 type  3   force =     0.00000000    0.00000000    0.00000000
     atom   17 type  2   force =    -0.00000000   -0.00000000   -0.00020855
     atom   18 type  2   force =    -0.00000000   -0.00000000    0.00020855
     atom   19 type  2   force =    -0.00000000    0.00000000   -0.00021075
     atom   20 type  2   force =    -0.00000000    0.00000000    0.00021075
     atom   21 type  2   force =     0.00000000   -0.00000000   -0.00021075
     atom   22 type  2   force =     0.00000000   -0.00000000    0.00021075
     atom   23 type  2   force =     0.00000000    0.00000000   -0.00021115
     atom   24 type  2   force =    -0.00000000   -0.00000000    0.00021115
     atom   25 type  2   force =    -0.00000000   -0.00020855   -0.00000000
     atom   26 type  2   force =    -0.00000000   -0.00021075    0.00000000
     atom   27 type  2   force =    -0.00000000    0.00020855   -0.00000000
     atom   28 type  2   force =    -0.00000000    0.00021075    0.00000000
     atom   29 type  2   force =     0.00000000   -0.00021075   -0.00000000
     atom   30 type  2   force =     0.00000000   -0.00021115    0.00000000
     atom   31 type  2   force =     0.00000000    0.00021075   -0.00000000
     atom   32 type  2   force =    -0.00000000    0.00021115   -0.00000000
     atom   33 type  2   force =    -0.00020855   -0.00000000   -0.00000000
     atom   34 type  2   force =    -0.00021075   -0.00000000    0.00000000
     atom   35 type  2   force =    -0.00021075    0.00000000   -0.00000000
     atom   36 type  2   force =    -0.00021115    0.00000000    0.00000000
     atom   37 type  2   force =     0.00020855   -0.00000000   -0.00000000
     atom   38 type  2   force =     0.00021075   -0.00000000    0.00000000
     atom   39 type  2   force =     0.00021075    0.00000000   -0.00000000
     atom   40 type  2   force =     0.00021115   -0.00000000   -0.00000000
     The local contribution  to forces
     atom    1 type  1   force =     0.00004539    0.00004539    0.00004539
     atom    2 type  1   force =     0.00004539    0.00004539   -0.00004539
     atom    3 type  1   force =     0.00004539   -0.00004539    0.00004539
     atom    4 type  1   force =     0.00004539   -0.00004539   -0.00004539
     atom    5 type  1   force =    -0.00004539    0.00004539    0.00004539
     atom    6 type  1   force =    -0.00004539    0.00004539   -0.00004539
     atom    7 type  1   force =    -0.00004539   -0.00004539    0.00004539
     atom    8 type  1   force =    -0.00004539   -0.00004539   -0.00004539
     atom    9 type  3   force =     0.00000000    0.00000000   -0.00000000
     atom   10 type  3   force =     0.00000000    0.00000000    0.00000000
     atom   11 type  3   force =     0.00000000    0.00000000   -0.00000000
     atom   12 type  3   force =     0.00000000    0.00000000    0.00000000
     atom   13 type  3   force =     0.00000000    0.00000000   -0.00000000
     atom   14 type  3   force =     0.00000000    0.00000000    0.00000000
     atom   15 type  3   force =     0.00000000    0.00000000   -0.00000000
     atom   16 type  3   force =     0.00000000    0.00000000    0.00000000
     atom   17 type  2   force =    -0.00000000   -0.00000000    0.00021016
     atom   18 type  2   force =    -0.00000000   -0.00000000   -0.00021016
     atom   19 type  2   force =    -0.00000000    0.00000000    0.00018632
     atom   20 type  2   force =    -0.00000000    0.00000000   -0.00018632
     atom   21 type  2   force =     0.00000000    0.00000000    0.00018632
     atom   22 type  2   force =     0.00000000   -0.00000000   -0.00018632
     atom   23 type  2   force =     0.00000000    0.00000000    0.00021621
     atom   24 type  2   force =    -0.00000000   -0.00000000   -0.00021621
     atom   25 type  2   force =    -0.00000000    0.00021016   -0.00000000
     atom   26 type  2   force =    -0.00000000    0.00018632    0.00000000
     atom   27 type  2   force =    -0.00000000   -0.00021016   -0.00000000
     atom   28 type  2   force =    -0.00000000   -0.00018632    0.00000000
     atom   29 type  2   force =     0.00000000    0.00018632   -0.00000000
     atom   30 type  2   force =     0.00000000    0.00021621    0.00000000
     atom   31 type  2   force =     0.00000000   -0.00018632   -0.00000000
     atom   32 type  2   force =     0.00000000   -0.00021621   -0.00000000
     atom   33 type  2   force =     0.00021016   -0.00000000   -0.00000000
     atom   34 type  2   force =     0.00018632   -0.00000000    0.00000000
     atom   35 type  2   force =     0.00018632   -0.00000000   -0.00000000
     atom   36 type  2   force =     0.00021621    0.00000000    0.00000000
     atom   37 type  2   force =    -0.00021016   -0.00000000   -0.00000000
     atom   38 type  2   force =    -0.00018632   -0.00000000    0.00000000
     atom   39 type  2   force =    -0.00018632    0.00000000   -0.00000000
     atom   40 type  2   force =    -0.00021621    0.00000000    0.00000000
     The core correction contribution to forces
     atom    1 type  1   force =    -0.00000006   -0.00000006   -0.00000006
     atom    2 type  1   force =    -0.00000006   -0.00000006    0.00000006
     atom    3 type  1   force =    -0.00000006    0.00000006   -0.00000006
     atom    4 type  1   force =    -0.00000006    0.00000006    0.00000006
     atom    5 type  1   force =     0.00000006   -0.00000006   -0.00000006
     atom    6 type  1   force =     0.00000006   -0.00000006    0.00000006
     atom    7 type  1   force =     0.00000006    0.00000006   -0.00000006
     atom    8 type  1   force =     0.00000006    0.00000006    0.00000006
     atom    9 type  3   force =     0.00000000    0.00000000    0.00000000
     atom   10 type  3   force =    -0.00000000   -0.00000000    0.00000000
     atom   11 type  3   force =    -0.00000000    0.00000000   -0.00000000
     atom   12 type  3   force =     0.00000000   -0.00000000   -0.00000000
     atom   13 type  3   force =     0.00000000   -0.00000000   -0.00000000
     atom   14 type  3   force =    -0.00000000    0.00000000   -0.00000000
     atom   15 type  3   force =    -0.00000000   -0.00000000    0.00000000
     atom   16 type  3   force =     0.00000000    0.00000000    0.00000000
     atom   17 type  2   force =     0.00000000    0.00000000    0.00000043
     atom   18 type  2   force =     0.00000000    0.00000000   -0.00000043
     atom   19 type  2   force =     0.00000000   -0.00000000    0.00000005
     atom   20 type  2   force =     0.00000000   -0.00000000   -0.00000005
     atom   21 type  2   force =    -0.00000000    0.00000000    0.00000005
     atom   22 type  2   force =    -0.00000000    0.00000000   -0.00000005
     atom   23 type  2   force =    -0.00000000   -0.00000000    0.00000097
     atom   24 type  2   force =     0.00000000    0.00000000   -0.00000097
     atom   25 type  2   force =     0.00000000    0.00000043    0.00000000
     atom   26 type  2   force =     0.00000000    0.00000005   -0.00000000
     atom   27 type  2   force =     0.00000000   -0.00000043    0.00000000
     atom   28 type  2   force =     0.00000000   -0.00000005   -0.00000000
     atom   29 type  2   force =    -0.00000000    0.00000005    0.00000000
     atom   30 type  2   force =    -0.00000000    0.00000097   -0.00000000
     atom   31 type  2   force =    -0.00000000   -0.00000005    0.00000000
     atom   32 type  2   force =     0.00000000   -0.00000097    0.00000000
     atom   33 type  2   force =     0.00000043    0.00000000    0.00000000
     atom   34 type  2   force =     0.00000005    0.00000000   -0.00000000
     atom   35 type  2   force =     0.00000005   -0.00000000    0.00000000
     atom   36 type  2   force =     0.00000097   -0.00000000   -0.00000000
     atom   37 type  2   force =    -0.00000043    0.00000000    0.00000000
     atom   38 type  2   force =    -0.00000005    0.00000000   -0.00000000
     atom   39 type  2   force =    -0.00000005   -0.00000000    0.00000000
     atom   40 type  2   force =    -0.00000097    0.00000000    0.00000000
     The Hubbard contrib.    to forces
     atom    1 type  1   force =     0.00000000    0.00000000    0.00000000
     atom    2 type  1   force =     0.00000000    0.00000000    0.00000000
     atom    3 type  1   force =     0.00000000    0.00000000    0.00000000
     atom    4 type  1   force =     0.00000000    0.00000000    0.00000000
     atom    5 type  1   force =     0.00000000    0.00000000    0.00000000
     atom    6 type  1   force =     0.00000000    0.00000000    0.00000000
     atom    7 type  1   force =     0.00000000    0.00000000    0.00000000
     atom    8 type  1   force =     0.00000000    0.00000000    0.00000000
     atom    9 type  3   force =     0.00000000    0.00000000    0.00000000
     atom   10 type  3   force =     0.00000000    0.00000000    0.00000000
     atom   11 type  3   force =     0.00000000    0.00000000    0.00000000
     atom   12 type  3   force =     0.00000000    0.00000000    0.00000000
     atom   13 type  3   force =     0.00000000    0.00000000    0.00000000
     atom   14 type  3   force =     0.00000000    0.00000000    0.00000000
     atom   15 type  3   force =     0.00000000    0.00000000    0.00000000
     atom   16 type  3   force =     0.00000000    0.00000000    0.00000000
     atom   17 type  2   force =     0.00000000    0.00000000    0.00000000
     atom   18 type  2   force =     0.00000000    0.00000000    0.00000000
     atom   19 type  2   force =     0.00000000    0.00000000    0.00000000
     atom   20 type  2   force =     0.00000000    0.00000000    0.00000000
     atom   21 type  2   force =     0.00000000    0.00000000    0.00000000
     atom   22 type  2   force =     0.00000000    0.00000000    0.00000000
     atom   23 type  2   force =     0.00000000    0.00000000    0.00000000
     atom   24 type  2   force =     0.00000000    0.00000000    0.00000000
     atom   25 type  2   force =     0.00000000    0.00000000    0.00000000
     atom   26 type  2   force =     0.00000000    0.00000000    0.00000000
     atom   27 type  2   force =     0.00000000    0.00000000    0.00000000
     atom   28 type  2   force =     0.00000000    0.00000000    0.00000000
     atom   29 type  2   force =     0.00000000    0.00000000    0.00000000
     atom   30 type  2   force =     0.00000000    0.00000000    0.00000000
     atom   31 type  2   force =     0.00000000    0.00000000    0.00000000
     atom   32 type  2   force =     0.00000000    0.00000000    0.00000000
     atom   33 type  2   force =     0.00000000    0.00000000    0.00000000
     atom   34 type  2   force =     0.00000000    0.00000000    0.00000000
     atom   35 type  2   force =     0.00000000    0.00000000    0.00000000
     atom   36 type  2   force =     0.00000000    0.00000000    0.00000000
     atom   37 type  2   force =     0.00000000    0.00000000    0.00000000
     atom   38 type  2   force =     0.00000000    0.00000000    0.00000000
     atom   39 type  2   force =     0.00000000    0.00000000    0.00000000
     atom   40 type  2   force =     0.00000000    0.00000000    0.00000000
     The SCF correction term to forces
     atom    1 type  1   force =     0.00000378    0.00000378    0.00000378
     atom    2 type  1   force =     0.00000378    0.00000378   -0.00000378
     atom    3 type  1   force =     0.00000378   -0.00000378    0.00000378
     atom    4 type  1   force =     0.00000378   -0.00000378   -0.00000378
     atom    5 type  1   force =    -0.00000378    0.00000378    0.00000378
     atom    6 type  1   force =    -0.00000378    0.00000378   -0.00000378
     atom    7 type  1   force =    -0.00000378   -0.00000378    0.00000378
     atom    8 type  1   force =    -0.00000378   -0.00000378   -0.00000378
     atom    9 type  3   force =    -0.00000000    0.00000000   -0.00000000
     atom   10 type  3   force =     0.00000000   -0.00000000   -0.00000000
     atom   11 type  3   force =     0.00000000   -0.00000000   -0.00000000
     atom   12 type  3   force =    -0.00000000   -0.00000000    0.00000000
     atom   13 type  3   force =     0.00000000    0.00000000   -0.00000000
     atom   14 type  3   force =     0.00000000    0.00000000   -0.00000000
     atom   15 type  3   force =     0.00000000   -0.00000000   -0.00000000
     atom   16 type  3   force =    -0.00000000   -0.00000000   -0.00000000
     atom   17 type  2   force =    -0.00000000   -0.00000000   -0.00000749
     atom   18 type  2   force =    -0.00000000   -0.00000000    0.00000749
     atom   19 type  2   force =     0.00000000    0.00000000    0.00002033
     atom   20 type  2   force =     0.00000000    0.00000000   -0.00002033
     atom   21 type  2   force =     0.00000000   -0.00000000    0.00002033
     atom   22 type  2   force =     0.00000000   -0.00000000   -0.00002033
     atom   23 type  2   force =    -0.00000000    0.00000000   -0.00001272
     atom   24 type  2   force =     0.00000000    0.00000000    0.00001272
     atom   25 type  2   force =    -0.00000000   -0.00000749    0.00000000
     atom   26 type  2   force =     0.00000000    0.00002033    0.00000000
     atom   27 type  2   force =    -0.00000000    0.00000749   -0.00000000
     atom   28 type  2   force =    -0.00000000   -0.00002033    0.00000000
     atom   29 type  2   force =     0.00000000    0.00002033   -0.00000000
     atom   30 type  2   force =    -0.00000000   -0.00001272    0.00000000
     atom   31 type  2   force =     0.00000000   -0.00002033   -0.00000000
     atom   32 type  2   force =    -0.00000000    0.00001272    0.00000000
     atom   33 type  2   force =    -0.00000749   -0.00000000   -0.00000000
     atom   34 type  2   force =     0.00002033   -0.00000000    0.00000000
     atom   35 type  2   force =     0.00002033    0.00000000   -0.00000000
     atom   36 type  2   force =    -0.00001272    0.00000000   -0.00000000
     atom   37 type  2   force =     0.00000749   -0.00000000   -0.00000000
     atom   38 type  2   force =    -0.00002033   -0.00000000    0.00000000
     atom   39 type  2   force =    -0.00002033    0.00000000   -0.00000000
     atom   40 type  2   force =     0.00001272    0.00000000   -0.00000000

     Total force =     0.000026     Total SCF correction =     0.000081
     SCF correction compared to forces is large: reduce conv_thr to get better values


     Computing stress (Cartesian axis) and pressure

          total   stress  (Ry/bohr**3)                   (kbar)     P=        0.34
   0.00000230   0.00000000   0.00000000            0.34        0.00        0.00
   0.00000000   0.00000230   0.00000000            0.00        0.34        0.00
   0.00000000   0.00000000   0.00000230            0.00        0.00        0.34

     kinetic stress (kbar)   3449.97      0.00      0.00
                                0.00   3449.97      0.00
                                0.00      0.00   3449.97

     local   stress (kbar)   -371.52     -0.00     -0.00
                               -0.00   -371.52     -0.00
                               -0.00     -0.00   -371.52

     nonloc. stress (kbar)    896.50      0.00      0.00
                                0.00    896.50      0.00
                                0.00      0.00    896.50

     hartree stress (kbar)   1920.44      0.00      0.00
                                0.00   1920.44      0.00
                                0.00      0.00   1920.44

     exc-cor stress (kbar)  12007.48      0.00      0.00
                                0.00  12007.48      0.00
                                0.00      0.00  12007.48

     corecor stress (kbar) -13606.50      0.00     -0.00
                                0.00 -13606.50      0.00
                               -0.00      0.00 -13606.50

     ewald   stress (kbar)  -4296.03      0.00     -0.00
                                0.00  -4296.03     -0.00
                               -0.00     -0.00  -4296.03

     hubbard stress (kbar)      0.00      0.00      0.00
                                0.00      0.00      0.00
                                0.00      0.00      0.00

     DFT-D   stress (kbar)      0.00      0.00      0.00
                                0.00      0.00      0.00
                                0.00      0.00      0.00

     XDM     stress (kbar)      0.00      0.00      0.00
                                0.00      0.00      0.00
                                0.00      0.00      0.00

     dft-nl  stress (kbar)      0.00      0.00      0.00
                                0.00      0.00      0.00
                                0.00      0.00      0.00

     TS-vdW  stress (kbar)      0.00      0.00      0.00
                                0.00      0.00      0.00
                                0.00      0.00      0.00



     Writing output data file ../../out/aiida.save/

     init_run     :    211.06s CPU    213.27s WALL (       1 calls)
     electrons    :   7415.19s CPU   7464.71s WALL (       1 calls)
     forces       :    152.12s CPU    153.62s WALL (       1 calls)
     stress       :    194.12s CPU    198.06s WALL (       1 calls)

     Called by init_run:
     wfcinit      :    194.09s CPU    194.88s WALL (       1 calls)
     wfcinit:atom :      0.24s CPU      0.35s WALL (       4 calls)
     wfcinit:wfcr :    192.22s CPU    192.76s WALL (       4 calls)
     potinit      :      3.10s CPU      3.31s WALL (       1 calls)
     hinit0       :      1.18s CPU      1.21s WALL (       1 calls)

     Called by electrons:
     c_bands      :   6481.07s CPU   6499.15s WALL (      12 calls)
     sum_band     :    770.88s CPU    788.79s WALL (      12 calls)
     v_of_rho     :     16.37s CPU     17.68s WALL (      12 calls)
     v_h          :      1.45s CPU      1.50s WALL (      12 calls)
     v_xc         :     17.13s CPU     18.63s WALL (      14 calls)
     newd         :    140.19s CPU    153.48s WALL (      12 calls)
     PAW_pot      :     16.09s CPU     16.09s WALL (      12 calls)
     mix_rho      :      3.27s CPU      3.36s WALL (      12 calls)

     Called by c_bands:
     init_us_2    :      8.71s CPU      8.75s WALL (     108 calls)
     cegterg      :   6448.38s CPU   6466.42s WALL (      49 calls)

     Called by sum_band:
     sum_band:wei :      0.01s CPU      0.01s WALL (      12 calls)
     sum_band:loo :    523.25s CPU    524.89s WALL (      12 calls)
     sum_band:buf :      2.35s CPU      2.35s WALL (      48 calls)
     sum_band:ini :      3.88s CPU      3.89s WALL (      48 calls)
     sum_band:cal :    354.46s CPU    354.53s WALL (      48 calls)
     sum_band:bec :      0.14s CPU      0.14s WALL (      48 calls)
     addusdens    :    245.22s CPU    261.33s WALL (      12 calls)
     addusd:skk   :      1.49s CPU      2.63s WALL (      36 calls)
     addusd:dgemm :    148.43s CPU    160.83s WALL (      36 calls)
     addusd:qvan2 :     92.57s CPU     92.59s WALL (      36 calls)

     Called by *egterg:
     cdiaghg      :     66.98s CPU     66.99s WALL (     389 calls)
     cegterg:over :    701.23s CPU    701.35s WALL (     344 calls)
     cegterg:upda :    461.89s CPU    463.26s WALL (     344 calls)
     cegterg:last :   1127.68s CPU   1127.82s WALL (     107 calls)
     h_psi        :   2901.40s CPU   2913.38s WALL (     397 calls)
     s_psi        :   1020.88s CPU   1021.01s WALL (     397 calls)
     g_psi        :      6.74s CPU      6.74s WALL (     344 calls)

     Called by h_psi:
     h_psi:calbec :   1008.92s CPU   1009.10s WALL (     397 calls)
     vloc_psi     :    867.52s CPU    877.19s WALL (     397 calls)
     add_vuspsi   :   1021.67s CPU   1021.80s WALL (     397 calls)

     General routines
     calbec       :   1509.81s CPU   1510.06s WALL (     465 calls)
     fft          :     15.39s CPU     16.29s WALL (     180 calls)
     ffts         :      0.72s CPU      0.76s WALL (      24 calls)
     fftw         :    815.73s CPU    823.68s WALL (   67808 calls)
     interpolate  :      1.75s CPU      1.83s WALL (      12 calls)

     Parallel routines
     fft_scatt_xy :    201.21s CPU    202.66s WALL (   68012 calls)
     fft_scatt_yz :     90.31s CPU     94.39s WALL (   68012 calls)

     PAW routines
     PAW_pot      :     16.09s CPU     16.09s WALL (      12 calls)
     PAW_symme    :      0.05s CPU      0.05s WALL (      24 calls)

     PWSCF        :      2h12m CPU      2h13m WALL


   This run was terminated on:  20:15:36   2Apr2024            

=------------------------------------------------------------------------------=
   JOB DONE.
=------------------------------------------------------------------------------=
