### Running on host: fes33

     Program PWSCF v.6.7MaX starts on  2Apr2024 at 15:50: 0 

     This program is part of the open-source Quantum ESPRESSO suite
     for quantum simulation of materials; please cite
         "P. Giannozzi et al., J. Phys.:Condens. Matter 21 395502 (2009);
         "P. Giannozzi et al., J. Phys.:Condens. Matter 29 465901 (2017);
          URL http://www.quantum-espresso.org", 
     in publications or presentations arising from this work. More details at
     http://www.quantum-espresso.org/quote

     Parallel version (MPI), running on     2 processors

     MPI processes distributed on     1 nodes
     R & G space division:  proc/nbgrp/npool/nimage =       2
     Reading input from pwscf_ecutrho-240.in

     Current dimensions of program PWSCF are:
     Max number of different atomic species (ntypx) = 10
     Max number of k-points (npk) =  40000
     Max angular momentum in pseudopotentials (lmaxx) =  3
     file Pb.pbe-dn-kjpaw_psl.0.2.2.UPF: wavefunction(s)  6S renormalized

     Subspace diagonalization in iterative solution of the eigenvalue problem:
     a serial algorithm will be used

     Found symmetry operation: I + (  0.0000  0.0000  0.5000)
     This is a supercell, fractional translations are disabled
     Message from routine setup:
     using ibrav=0 with symmetry is DISCOURAGED, use correct ibrav instead

     Parallelization info
     --------------------
     sticks:   dense  smooth     PW     G-vecs:    dense   smooth      PW
     Min        5558    3707    969               440353   239884   32114
     Max        5559    3710    972               440354   239885   32115
     Sum       11117    7417   1941               880707   479769   64229



     bravais-lattice index     =            0
     lattice parameter (alat)  =      24.1188  a.u.
     unit-cell volume          =   14030.3801 (a.u.)^3
     number of atoms/cell      =           40
     number of atomic types    =            3
     number of electrons       =       352.00
     number of Kohn-Sham states=          211
     kinetic-energy cutoff     =      40.0000  Ry
     charge density cutoff     =     240.0000  Ry
     scf convergence threshold =      8.0E-09
     mixing beta               =       0.4000
     number of iterations used =            8  plain     mixing
     Exchange-correlation= SLA  PW   PBX  PBC
                           (   1   4   3   4   0   0   0)

     celldm(1)=  24.118843  celldm(2)=   0.000000  celldm(3)=   0.000000
     celldm(4)=   0.000000  celldm(5)=   0.000000  celldm(6)=   0.000000

     crystal axes: (cart. coord. in units of alat)
               a(1) = (   1.000000   0.000000   0.000000 )  
               a(2) = (   0.000000   1.000000   0.000000 )  
               a(3) = (   0.000000   0.000000   1.000000 )  

     reciprocal axes: (cart. coord. in units 2 pi/alat)
               b(1) = (  1.000000  0.000000  0.000000 )  
               b(2) = (  0.000000  1.000000  0.000000 )  
               b(3) = (  0.000000  0.000000  1.000000 )  


     PseudoPot. # 1 for Cs read from file:
     ../../pseudo/Cs_pbe_v1.uspp.F.UPF
     MD5 check sum: 3476d69cb178dfad3ffaa59df4e07ca4
     Pseudo is Ultrasoft + core correction, Zval =  9.0
     Generated by new atomic code, or converted to UPF format
     Using radial grid of  905 points,  6 beta functions with: 
                l(1) =   0
                l(2) =   0
                l(3) =   1
                l(4) =   1
                l(5) =   2
                l(6) =   2
     Q(r) pseudized with  6 coefficients,  rinner =    1.500   1.500   1.500
                                                       1.500   1.500

     PseudoPot. # 2 for I  read from file:
     ../../pseudo/I.pbe-n-kjpaw_psl.0.2.UPF
     MD5 check sum: d4ef18d9c8f18dc85e5843bca1e50dc0
     Pseudo is Projector augmented-wave + core cor, Zval =  7.0
     Generated using "atomic" code by A. Dal Corso  v.5.0.99 svn rev. 10869
     Shape of augmentation charge: PSQ
     Using radial grid of 1247 points,  4 beta functions with: 
                l(1) =   0
                l(2) =   0
                l(3) =   1
                l(4) =   1
     Q(r) pseudized with 0 coefficients 


     PseudoPot. # 3 for Pb read from file:
     ../../pseudo/Pb.pbe-dn-kjpaw_psl.0.2.2.UPF
     MD5 check sum: 9d431e6316058b74ade52399a6cf67da
     Pseudo is Projector augmented-wave + core cor, Zval = 14.0
     Generated using "atomic" code by A. Dal Corso  v.5.0.99 svn rev. 10869
     Shape of augmentation charge: PSQ
     Using radial grid of 1281 points,  6 beta functions with: 
                l(1) =   0
                l(2) =   0
                l(3) =   1
                l(4) =   1
                l(5) =   2
                l(6) =   2
     Q(r) pseudized with 0 coefficients 


     atomic species   valence    mass     pseudopotential
        Cs             9.00   132.90545     Cs( 1.00)
        I              7.00   126.90447     I ( 1.00)
        Pb            14.00   207.20000     Pb( 1.00)

     48 Sym. Ops., with inversion, found


                                    s                        frac. trans.

      isym =  1     identity                                     

 cryst.   s( 1) = (     1          0          0      )
                  (     0          1          0      )
                  (     0          0          1      )

 cart.    s( 1) = (  1.0000000  0.0000000  0.0000000 )
                  (  0.0000000  1.0000000  0.0000000 )
                  (  0.0000000  0.0000000  1.0000000 )


      isym =  2     180 deg rotation - cart. axis [0,0,1]        

 cryst.   s( 2) = (    -1          0          0      )
                  (     0         -1          0      )
                  (     0          0          1      )

 cart.    s( 2) = ( -1.0000000  0.0000000  0.0000000 )
                  (  0.0000000 -1.0000000  0.0000000 )
                  (  0.0000000  0.0000000  1.0000000 )


      isym =  3     180 deg rotation - cart. axis [0,1,0]        

 cryst.   s( 3) = (    -1          0          0      )
                  (     0          1          0      )
                  (     0          0         -1      )

 cart.    s( 3) = ( -1.0000000  0.0000000  0.0000000 )
                  (  0.0000000  1.0000000  0.0000000 )
                  (  0.0000000  0.0000000 -1.0000000 )


      isym =  4     180 deg rotation - cart. axis [1,0,0]        

 cryst.   s( 4) = (     1          0          0      )
                  (     0         -1          0      )
                  (     0          0         -1      )

 cart.    s( 4) = (  1.0000000  0.0000000  0.0000000 )
                  (  0.0000000 -1.0000000  0.0000000 )
                  (  0.0000000  0.0000000 -1.0000000 )


      isym =  5     180 deg rotation - cart. axis [1,1,0]        

 cryst.   s( 5) = (     0          1          0      )
                  (     1          0          0      )
                  (     0          0         -1      )

 cart.    s( 5) = (  0.0000000  1.0000000  0.0000000 )
                  (  1.0000000  0.0000000  0.0000000 )
                  (  0.0000000  0.0000000 -1.0000000 )


      isym =  6     180 deg rotation - cart. axis [1,-1,0]       

 cryst.   s( 6) = (     0         -1          0      )
                  (    -1          0          0      )
                  (     0          0         -1      )

 cart.    s( 6) = (  0.0000000 -1.0000000  0.0000000 )
                  ( -1.0000000  0.0000000  0.0000000 )
                  (  0.0000000  0.0000000 -1.0000000 )


      isym =  7      90 deg rotation - cart. axis [0,0,-1]       

 cryst.   s( 7) = (     0         -1          0      )
                  (     1          0          0      )
                  (     0          0          1      )

 cart.    s( 7) = (  0.0000000  1.0000000  0.0000000 )
                  ( -1.0000000  0.0000000  0.0000000 )
                  (  0.0000000  0.0000000  1.0000000 )


      isym =  8      90 deg rotation - cart. axis [0,0,1]        

 cryst.   s( 8) = (     0          1          0      )
                  (    -1          0          0      )
                  (     0          0          1      )

 cart.    s( 8) = (  0.0000000 -1.0000000  0.0000000 )
                  (  1.0000000  0.0000000  0.0000000 )
                  (  0.0000000  0.0000000  1.0000000 )


      isym =  9     180 deg rotation - cart. axis [1,0,1]        

 cryst.   s( 9) = (     0          0          1      )
                  (     0         -1          0      )
                  (     1          0          0      )

 cart.    s( 9) = (  0.0000000  0.0000000  1.0000000 )
                  (  0.0000000 -1.0000000  0.0000000 )
                  (  1.0000000  0.0000000  0.0000000 )


      isym = 10     180 deg rotation - cart. axis [-1,0,1]       

 cryst.   s(10) = (     0          0         -1      )
                  (     0         -1          0      )
                  (    -1          0          0      )

 cart.    s(10) = (  0.0000000  0.0000000 -1.0000000 )
                  (  0.0000000 -1.0000000  0.0000000 )
                  ( -1.0000000  0.0000000  0.0000000 )


      isym = 11      90 deg rotation - cart. axis [0,1,0]        

 cryst.   s(11) = (     0          0         -1      )
                  (     0          1          0      )
                  (     1          0          0      )

 cart.    s(11) = (  0.0000000  0.0000000  1.0000000 )
                  (  0.0000000  1.0000000  0.0000000 )
                  ( -1.0000000  0.0000000  0.0000000 )


      isym = 12      90 deg rotation - cart. axis [0,-1,0]       

 cryst.   s(12) = (     0          0          1      )
                  (     0          1          0      )
                  (    -1          0          0      )

 cart.    s(12) = (  0.0000000  0.0000000 -1.0000000 )
                  (  0.0000000  1.0000000  0.0000000 )
                  (  1.0000000  0.0000000  0.0000000 )


      isym = 13     180 deg rotation - cart. axis [0,1,1]        

 cryst.   s(13) = (    -1          0          0      )
                  (     0          0          1      )
                  (     0          1          0      )

 cart.    s(13) = ( -1.0000000  0.0000000  0.0000000 )
                  (  0.0000000  0.0000000  1.0000000 )
                  (  0.0000000  1.0000000  0.0000000 )


      isym = 14     180 deg rotation - cart. axis [0,1,-1]       

 cryst.   s(14) = (    -1          0          0      )
                  (     0          0         -1      )
                  (     0         -1          0      )

 cart.    s(14) = ( -1.0000000  0.0000000  0.0000000 )
                  (  0.0000000  0.0000000 -1.0000000 )
                  (  0.0000000 -1.0000000  0.0000000 )


      isym = 15      90 deg rotation - cart. axis [-1,0,0]       

 cryst.   s(15) = (     1          0          0      )
                  (     0          0         -1      )
                  (     0          1          0      )

 cart.    s(15) = (  1.0000000  0.0000000  0.0000000 )
                  (  0.0000000  0.0000000  1.0000000 )
                  (  0.0000000 -1.0000000  0.0000000 )


      isym = 16      90 deg rotation - cart. axis [1,0,0]        

 cryst.   s(16) = (     1          0          0      )
                  (     0          0          1      )
                  (     0         -1          0      )

 cart.    s(16) = (  1.0000000  0.0000000  0.0000000 )
                  (  0.0000000  0.0000000 -1.0000000 )
                  (  0.0000000  1.0000000  0.0000000 )


      isym = 17     120 deg rotation - cart. axis [-1,-1,-1]     

 cryst.   s(17) = (     0          0          1      )
                  (     1          0          0      )
                  (     0          1          0      )

 cart.    s(17) = (  0.0000000  1.0000000  0.0000000 )
                  (  0.0000000  0.0000000  1.0000000 )
                  (  1.0000000  0.0000000  0.0000000 )


      isym = 18     120 deg rotation - cart. axis [-1,1,1]       

 cryst.   s(18) = (     0          0         -1      )
                  (    -1          0          0      )
                  (     0          1          0      )

 cart.    s(18) = (  0.0000000 -1.0000000  0.0000000 )
                  (  0.0000000  0.0000000  1.0000000 )
                  ( -1.0000000  0.0000000  0.0000000 )


      isym = 19     120 deg rotation - cart. axis [1,1,-1]       

 cryst.   s(19) = (     0          0         -1      )
                  (     1          0          0      )
                  (     0         -1          0      )

 cart.    s(19) = (  0.0000000  1.0000000  0.0000000 )
                  (  0.0000000  0.0000000 -1.0000000 )
                  ( -1.0000000  0.0000000  0.0000000 )


      isym = 20     120 deg rotation - cart. axis [1,-1,1]       

 cryst.   s(20) = (     0          0          1      )
                  (    -1          0          0      )
                  (     0         -1          0      )

 cart.    s(20) = (  0.0000000 -1.0000000  0.0000000 )
                  (  0.0000000  0.0000000 -1.0000000 )
                  (  1.0000000  0.0000000  0.0000000 )


      isym = 21     120 deg rotation - cart. axis [1,1,1]        

 cryst.   s(21) = (     0          1          0      )
                  (     0          0          1      )
                  (     1          0          0      )

 cart.    s(21) = (  0.0000000  0.0000000  1.0000000 )
                  (  1.0000000  0.0000000  0.0000000 )
                  (  0.0000000  1.0000000  0.0000000 )


      isym = 22     120 deg rotation - cart. axis [-1,1,-1]      

 cryst.   s(22) = (     0         -1          0      )
                  (     0          0         -1      )
                  (     1          0          0      )

 cart.    s(22) = (  0.0000000  0.0000000  1.0000000 )
                  ( -1.0000000  0.0000000  0.0000000 )
                  (  0.0000000 -1.0000000  0.0000000 )


      isym = 23     120 deg rotation - cart. axis [1,-1,-1]      

 cryst.   s(23) = (     0         -1          0      )
                  (     0          0          1      )
                  (    -1          0          0      )

 cart.    s(23) = (  0.0000000  0.0000000 -1.0000000 )
                  ( -1.0000000  0.0000000  0.0000000 )
                  (  0.0000000  1.0000000  0.0000000 )


      isym = 24     120 deg rotation - cart. axis [-1,-1,1]      

 cryst.   s(24) = (     0          1          0      )
                  (     0          0         -1      )
                  (    -1          0          0      )

 cart.    s(24) = (  0.0000000  0.0000000 -1.0000000 )
                  (  1.0000000  0.0000000  0.0000000 )
                  (  0.0000000 -1.0000000  0.0000000 )


      isym = 25     inversion                                    

 cryst.   s(25) = (    -1          0          0      )
                  (     0         -1          0      )
                  (     0          0         -1      )

 cart.    s(25) = ( -1.0000000  0.0000000  0.0000000 )
                  (  0.0000000 -1.0000000  0.0000000 )
                  (  0.0000000  0.0000000 -1.0000000 )


      isym = 26     inv. 180 deg rotation - cart. axis [0,0,1]   

 cryst.   s(26) = (     1          0          0      )
                  (     0          1          0      )
                  (     0          0         -1      )

 cart.    s(26) = (  1.0000000  0.0000000  0.0000000 )
                  (  0.0000000  1.0000000  0.0000000 )
                  (  0.0000000  0.0000000 -1.0000000 )


      isym = 27     inv. 180 deg rotation - cart. axis [0,1,0]   

 cryst.   s(27) = (     1          0          0      )
                  (     0         -1          0      )
                  (     0          0          1      )

 cart.    s(27) = (  1.0000000  0.0000000  0.0000000 )
                  (  0.0000000 -1.0000000  0.0000000 )
                  (  0.0000000  0.0000000  1.0000000 )


      isym = 28     inv. 180 deg rotation - cart. axis [1,0,0]   

 cryst.   s(28) = (    -1          0          0      )
                  (     0          1          0      )
                  (     0          0          1      )

 cart.    s(28) = ( -1.0000000  0.0000000  0.0000000 )
                  (  0.0000000  1.0000000  0.0000000 )
                  (  0.0000000  0.0000000  1.0000000 )


      isym = 29     inv. 180 deg rotation - cart. axis [1,1,0]   

 cryst.   s(29) = (     0         -1          0      )
                  (    -1          0          0      )
                  (     0          0          1      )

 cart.    s(29) = (  0.0000000 -1.0000000  0.0000000 )
                  ( -1.0000000  0.0000000  0.0000000 )
                  (  0.0000000  0.0000000  1.0000000 )


      isym = 30     inv. 180 deg rotation - cart. axis [1,-1,0]  

 cryst.   s(30) = (     0          1          0      )
                  (     1          0          0      )
                  (     0          0          1      )

 cart.    s(30) = (  0.0000000  1.0000000  0.0000000 )
                  (  1.0000000  0.0000000  0.0000000 )
                  (  0.0000000  0.0000000  1.0000000 )


      isym = 31     inv.  90 deg rotation - cart. axis [0,0,-1]  

 cryst.   s(31) = (     0          1          0      )
                  (    -1          0          0      )
                  (     0          0         -1      )

 cart.    s(31) = (  0.0000000 -1.0000000  0.0000000 )
                  (  1.0000000  0.0000000  0.0000000 )
                  (  0.0000000  0.0000000 -1.0000000 )


      isym = 32     inv.  90 deg rotation - cart. axis [0,0,1]   

 cryst.   s(32) = (     0         -1          0      )
                  (     1          0          0      )
                  (     0          0         -1      )

 cart.    s(32) = (  0.0000000  1.0000000  0.0000000 )
                  ( -1.0000000  0.0000000  0.0000000 )
                  (  0.0000000  0.0000000 -1.0000000 )


      isym = 33     inv. 180 deg rotation - cart. axis [1,0,1]   

 cryst.   s(33) = (     0          0         -1      )
                  (     0          1          0      )
                  (    -1          0          0      )

 cart.    s(33) = (  0.0000000  0.0000000 -1.0000000 )
                  (  0.0000000  1.0000000  0.0000000 )
                  ( -1.0000000  0.0000000  0.0000000 )


      isym = 34     inv. 180 deg rotation - cart. axis [-1,0,1]  

 cryst.   s(34) = (     0          0          1      )
                  (     0          1          0      )
                  (     1          0          0      )

 cart.    s(34) = (  0.0000000  0.0000000  1.0000000 )
                  (  0.0000000  1.0000000  0.0000000 )
                  (  1.0000000  0.0000000  0.0000000 )


      isym = 35     inv.  90 deg rotation - cart. axis [0,1,0]   

 cryst.   s(35) = (     0          0          1      )
                  (     0         -1          0      )
                  (    -1          0          0      )

 cart.    s(35) = (  0.0000000  0.0000000 -1.0000000 )
                  (  0.0000000 -1.0000000  0.0000000 )
                  (  1.0000000  0.0000000  0.0000000 )


      isym = 36     inv.  90 deg rotation - cart. axis [0,-1,0]  

 cryst.   s(36) = (     0          0         -1      )
                  (     0         -1          0      )
                  (     1          0          0      )

 cart.    s(36) = (  0.0000000  0.0000000  1.0000000 )
                  (  0.0000000 -1.0000000  0.0000000 )
                  ( -1.0000000  0.0000000  0.0000000 )


      isym = 37     inv. 180 deg rotation - cart. axis [0,1,1]   

 cryst.   s(37) = (     1          0          0      )
                  (     0          0         -1      )
                  (     0         -1          0      )

 cart.    s(37) = (  1.0000000  0.0000000  0.0000000 )
                  (  0.0000000  0.0000000 -1.0000000 )
                  (  0.0000000 -1.0000000  0.0000000 )


      isym = 38     inv. 180 deg rotation - cart. axis [0,1,-1]  

 cryst.   s(38) = (     1          0          0      )
                  (     0          0          1      )
                  (     0          1          0      )

 cart.    s(38) = (  1.0000000  0.0000000  0.0000000 )
                  (  0.0000000  0.0000000  1.0000000 )
                  (  0.0000000  1.0000000  0.0000000 )


      isym = 39     inv.  90 deg rotation - cart. axis [-1,0,0]  

 cryst.   s(39) = (    -1          0          0      )
                  (     0          0          1      )
                  (     0         -1          0      )

 cart.    s(39) = ( -1.0000000  0.0000000  0.0000000 )
                  (  0.0000000  0.0000000 -1.0000000 )
                  (  0.0000000  1.0000000  0.0000000 )


      isym = 40     inv.  90 deg rotation - cart. axis [1,0,0]   

 cryst.   s(40) = (    -1          0          0      )
                  (     0          0         -1      )
                  (     0          1          0      )

 cart.    s(40) = ( -1.0000000  0.0000000  0.0000000 )
                  (  0.0000000  0.0000000  1.0000000 )
                  (  0.0000000 -1.0000000  0.0000000 )


      isym = 41     inv. 120 deg rotation - cart. axis [-1,-1,-1]

 cryst.   s(41) = (     0          0         -1      )
                  (    -1          0          0      )
                  (     0         -1          0      )

 cart.    s(41) = (  0.0000000 -1.0000000  0.0000000 )
                  (  0.0000000  0.0000000 -1.0000000 )
                  ( -1.0000000  0.0000000  0.0000000 )


      isym = 42     inv. 120 deg rotation - cart. axis [-1,1,1]  

 cryst.   s(42) = (     0          0          1      )
                  (     1          0          0      )
                  (     0         -1          0      )

 cart.    s(42) = (  0.0000000  1.0000000  0.0000000 )
                  (  0.0000000  0.0000000 -1.0000000 )
                  (  1.0000000  0.0000000  0.0000000 )


      isym = 43     inv. 120 deg rotation - cart. axis [1,1,-1]  

 cryst.   s(43) = (     0          0          1      )
                  (    -1          0          0      )
                  (     0          1          0      )

 cart.    s(43) = (  0.0000000 -1.0000000  0.0000000 )
                  (  0.0000000  0.0000000  1.0000000 )
                  (  1.0000000  0.0000000  0.0000000 )


      isym = 44     inv. 120 deg rotation - cart. axis [1,-1,1]  

 cryst.   s(44) = (     0          0         -1      )
                  (     1          0          0      )
                  (     0          1          0      )

 cart.    s(44) = (  0.0000000  1.0000000  0.0000000 )
                  (  0.0000000  0.0000000  1.0000000 )
                  ( -1.0000000  0.0000000  0.0000000 )


      isym = 45     inv. 120 deg rotation - cart. axis [1,1,1]   

 cryst.   s(45) = (     0         -1          0      )
                  (     0          0         -1      )
                  (    -1          0          0      )

 cart.    s(45) = (  0.0000000  0.0000000 -1.0000000 )
                  ( -1.0000000  0.0000000  0.0000000 )
                  (  0.0000000 -1.0000000  0.0000000 )


      isym = 46     inv. 120 deg rotation - cart. axis [-1,1,-1] 

 cryst.   s(46) = (     0          1          0      )
                  (     0          0          1      )
                  (    -1          0          0      )

 cart.    s(46) = (  0.0000000  0.0000000 -1.0000000 )
                  (  1.0000000  0.0000000  0.0000000 )
                  (  0.0000000  1.0000000  0.0000000 )


      isym = 47     inv. 120 deg rotation - cart. axis [1,-1,-1] 

 cryst.   s(47) = (     0          1          0      )
                  (     0          0         -1      )
                  (     1          0          0      )

 cart.    s(47) = (  0.0000000  0.0000000  1.0000000 )
                  (  1.0000000  0.0000000  0.0000000 )
                  (  0.0000000 -1.0000000  0.0000000 )


      isym = 48     inv. 120 deg rotation - cart. axis [-1,-1,1] 

 cryst.   s(48) = (     0         -1          0      )
                  (     0          0          1      )
                  (     1          0          0      )

 cart.    s(48) = (  0.0000000  0.0000000  1.0000000 )
                  ( -1.0000000  0.0000000  0.0000000 )
                  (  0.0000000  1.0000000  0.0000000 )


   Cartesian axes

     site n.     atom                  positions (alat units)
         1           Cs  tau(   1) = (   0.2500001   0.2500001   0.2500001  )
         2           Cs  tau(   2) = (   0.2500001   0.2500001   0.7499999  )
         3           Cs  tau(   3) = (   0.2500001   0.7499999   0.2500001  )
         4           Cs  tau(   4) = (   0.2500001   0.7499999   0.7499999  )
         5           Cs  tau(   5) = (   0.7499999   0.2500001   0.2500001  )
         6           Cs  tau(   6) = (   0.7499999   0.2500001   0.7499999  )
         7           Cs  tau(   7) = (   0.7499999   0.7499999   0.2500001  )
         8           Cs  tau(   8) = (   0.7499999   0.7499999   0.7499999  )
         9           Pb  tau(   9) = (   0.0000000   0.0000000   0.0000000  )
        10           Pb  tau(  10) = (   0.0000000   0.0000000   0.5000000  )
        11           Pb  tau(  11) = (   0.0000000   0.5000000   0.0000000  )
        12           Pb  tau(  12) = (   0.0000000   0.5000000   0.5000000  )
        13           Pb  tau(  13) = (   0.5000000   0.0000000   0.0000000  )
        14           Pb  tau(  14) = (   0.5000000   0.0000000   0.5000000  )
        15           Pb  tau(  15) = (   0.5000000   0.5000000   0.0000000  )
        16           Pb  tau(  16) = (   0.5000000   0.5000000   0.5000000  )
        17           I   tau(  17) = (   0.0000000   0.0000000   0.2500016  )
        18           I   tau(  18) = (   0.0000000   0.0000000   0.7499984  )
        19           I   tau(  19) = (   0.0000000   0.5000000   0.2500017  )
        20           I   tau(  20) = (   0.0000000   0.5000000   0.7499983  )
        21           I   tau(  21) = (   0.5000000   0.0000000   0.2500017  )
        22           I   tau(  22) = (   0.5000000   0.0000000   0.7499983  )
        23           I   tau(  23) = (   0.5000000   0.5000000   0.2500017  )
        24           I   tau(  24) = (   0.5000000   0.5000000   0.7499983  )
        25           I   tau(  25) = (   0.0000000   0.2500016   0.0000000  )
        26           I   tau(  26) = (   0.0000000   0.2500017   0.5000000  )
        27           I   tau(  27) = (   0.0000000   0.7499984   0.0000000  )
        28           I   tau(  28) = (   0.0000000   0.7499983   0.5000000  )
        29           I   tau(  29) = (   0.5000000   0.2500017   0.0000000  )
        30           I   tau(  30) = (   0.5000000   0.2500017   0.5000000  )
        31           I   tau(  31) = (   0.5000000   0.7499983   0.0000000  )
        32           I   tau(  32) = (   0.5000000   0.7499983   0.5000000  )
        33           I   tau(  33) = (   0.2500016   0.0000000   0.0000000  )
        34           I   tau(  34) = (   0.2500017   0.0000000   0.5000000  )
        35           I   tau(  35) = (   0.2500017   0.5000000   0.0000000  )
        36           I   tau(  36) = (   0.2500017   0.5000000   0.5000000  )
        37           I   tau(  37) = (   0.7499984   0.0000000   0.0000000  )
        38           I   tau(  38) = (   0.7499983   0.0000000   0.5000000  )
        39           I   tau(  39) = (   0.7499983   0.5000000   0.0000000  )
        40           I   tau(  40) = (   0.7499983   0.5000000   0.5000000  )

   Crystallographic axes

     site n.     atom                  positions (cryst. coord.)
         1           Cs  tau(   1) = (  0.2500001  0.2500001  0.2500001  )
         2           Cs  tau(   2) = (  0.2500001  0.2500001  0.7499999  )
         3           Cs  tau(   3) = (  0.2500001  0.7499999  0.2500001  )
         4           Cs  tau(   4) = (  0.2500001  0.7499999  0.7499999  )
         5           Cs  tau(   5) = (  0.7499999  0.2500001  0.2500001  )
         6           Cs  tau(   6) = (  0.7499999  0.2500001  0.7499999  )
         7           Cs  tau(   7) = (  0.7499999  0.7499999  0.2500001  )
         8           Cs  tau(   8) = (  0.7499999  0.7499999  0.7499999  )
         9           Pb  tau(   9) = (  0.0000000  0.0000000  0.0000000  )
        10           Pb  tau(  10) = (  0.0000000  0.0000000  0.5000000  )
        11           Pb  tau(  11) = (  0.0000000  0.5000000  0.0000000  )
        12           Pb  tau(  12) = (  0.0000000  0.5000000  0.5000000  )
        13           Pb  tau(  13) = (  0.5000000  0.0000000  0.0000000  )
        14           Pb  tau(  14) = (  0.5000000  0.0000000  0.5000000  )
        15           Pb  tau(  15) = (  0.5000000  0.5000000  0.0000000  )
        16           Pb  tau(  16) = (  0.5000000  0.5000000  0.5000000  )
        17           I   tau(  17) = (  0.0000000  0.0000000  0.2500016  )
        18           I   tau(  18) = (  0.0000000  0.0000000  0.7499984  )
        19           I   tau(  19) = (  0.0000000  0.5000000  0.2500017  )
        20           I   tau(  20) = (  0.0000000  0.5000000  0.7499983  )
        21           I   tau(  21) = (  0.5000000  0.0000000  0.2500017  )
        22           I   tau(  22) = (  0.5000000  0.0000000  0.7499983  )
        23           I   tau(  23) = (  0.5000000  0.5000000  0.2500017  )
        24           I   tau(  24) = (  0.5000000  0.5000000  0.7499983  )
        25           I   tau(  25) = (  0.0000000  0.2500016  0.0000000  )
        26           I   tau(  26) = (  0.0000000  0.2500017  0.5000000  )
        27           I   tau(  27) = (  0.0000000  0.7499984  0.0000000  )
        28           I   tau(  28) = (  0.0000000  0.7499983  0.5000000  )
        29           I   tau(  29) = (  0.5000000  0.2500017  0.0000000  )
        30           I   tau(  30) = (  0.5000000  0.2500017  0.5000000  )
        31           I   tau(  31) = (  0.5000000  0.7499983  0.0000000  )
        32           I   tau(  32) = (  0.5000000  0.7499983  0.5000000  )
        33           I   tau(  33) = (  0.2500016  0.0000000  0.0000000  )
        34           I   tau(  34) = (  0.2500017  0.0000000  0.5000000  )
        35           I   tau(  35) = (  0.2500017  0.5000000  0.0000000  )
        36           I   tau(  36) = (  0.2500017  0.5000000  0.5000000  )
        37           I   tau(  37) = (  0.7499984  0.0000000  0.0000000  )
        38           I   tau(  38) = (  0.7499983  0.0000000  0.5000000  )
        39           I   tau(  39) = (  0.7499983  0.5000000  0.0000000  )
        40           I   tau(  40) = (  0.7499983  0.5000000  0.5000000  )

     number of k points=     4  Marzari-Vanderbilt smearing, width (Ry)=  0.0147
                       cart. coord. in units 2pi/alat
        k(    1) = (   0.0000000   0.0000000   0.0000000), wk =   0.0740741
        k(    2) = (   0.0000000   0.0000000   0.3333333), wk =   0.4444444
        k(    3) = (   0.0000000   0.3333333   0.3333333), wk =   0.8888889
        k(    4) = (   0.3333333   0.3333333   0.3333333), wk =   0.5925926

                       cryst. coord.
        k(    1) = (   0.0000000   0.0000000   0.0000000), wk =   0.0740741
        k(    2) = (   0.0000000   0.0000000   0.3333333), wk =   0.4444444
        k(    3) = (   0.0000000   0.3333333   0.3333333), wk =   0.8888889
        k(    4) = (   0.3333333   0.3333333   0.3333333), wk =   0.5925926

     Dense  grid:   880707 G-vectors     FFT dimensions: ( 120, 120, 120)

     Smooth grid:   479769 G-vectors     FFT dimensions: ( 100, 100, 100)

     Dynamical RAM for                 wfc:      96.49 MB

     Dynamical RAM for     wfc (w. buffer):     482.44 MB

     Dynamical RAM for           str. fact:      20.16 MB

     Dynamical RAM for           local pot:       0.00 MB

     Dynamical RAM for          nlocal pot:     219.50 MB

     Dynamical RAM for                qrad:       3.73 MB

     Dynamical RAM for          rho,v,vnew:      39.93 MB

     Dynamical RAM for               rhoin:      13.31 MB

     Dynamical RAM for            rho*nmix:     107.51 MB

     Dynamical RAM for           G-vectors:      27.03 MB

     Dynamical RAM for          h,s,v(r/c):       8.15 MB

     Dynamical RAM for          <psi|beta>:       1.55 MB

     Dynamical RAM for                 psi:     192.98 MB

     Dynamical RAM for                hpsi:     192.98 MB

     Dynamical RAM for                spsi:     192.98 MB

     Dynamical RAM for      wfcinit/wfcrot:     250.46 MB

     Dynamical RAM for           addusdens:    1411.05 MB

     Dynamical RAM for          addusforce:    1723.59 MB

     Dynamical RAM for         addusstress:    1350.57 MB

     Estimated static dynamical RAM per process >     973.45 MB

     Estimated max dynamical RAM per process >       2.63 GB

     Estimated total dynamical RAM >       5.27 GB

     Check: negative core charge=   -0.000001

     Initial potential from superposition of free atoms

     starting charge  351.66429, renormalised to  352.00000
     Starting wfcs are  272 randomized atomic wfcs
     Checking if some PAW data can be deallocated... 
       PAW data deallocated on    1 nodes for type:  3

     total cpu time spent up to now is      220.4 secs

     Self-consistent Calculation

     iteration #  1     ecut=    40.00 Ry     beta= 0.40
     Davidson diagonalization with overlap
     ethr =  1.00E-02,  avg # of iterations =  2.8

     Threshold (ethr) on eigenvalues was too large:
     Diagonalizing with lowered threshold

     Davidson diagonalization with overlap
     ethr =  2.57E-04,  avg # of iterations =  8.8

     total cpu time spent up to now is     1307.7 secs

     total energy              =  -16565.69716761 Ry
     estimated scf accuracy    <       0.82158348 Ry

     iteration #  2     ecut=    40.00 Ry     beta= 0.40
     Davidson diagonalization with overlap
     ethr =  2.33E-04,  avg # of iterations =  2.0

     total cpu time spent up to now is     1862.9 secs

     total energy              =  -16565.82429661 Ry
     estimated scf accuracy    <       0.05288858 Ry

     iteration #  3     ecut=    40.00 Ry     beta= 0.40
     Davidson diagonalization with overlap
     ethr =  1.50E-05,  avg # of iterations = 16.2

     total cpu time spent up to now is     2843.1 secs

     total energy              =  -16565.85199467 Ry
     estimated scf accuracy    <       0.01518628 Ry

     iteration #  4     ecut=    40.00 Ry     beta= 0.40
     Davidson diagonalization with overlap
     ethr =  4.31E-06,  avg # of iterations =  8.8

     total cpu time spent up to now is     3472.8 secs

     total energy              =  -16565.85467153 Ry
     estimated scf accuracy    <       0.00221897 Ry

     iteration #  5     ecut=    40.00 Ry     beta= 0.40
     Davidson diagonalization with overlap
     ethr =  6.30E-07,  avg # of iterations =  5.5

     total cpu time spent up to now is     4084.5 secs

     total energy              =  -16565.85517237 Ry
     estimated scf accuracy    <       0.00029486 Ry

     iteration #  6     ecut=    40.00 Ry     beta= 0.40
     Davidson diagonalization with overlap
     ethr =  8.38E-08,  avg # of iterations =  9.0

     total cpu time spent up to now is     4679.9 secs

     total energy              =  -16565.85526115 Ry
     estimated scf accuracy    <       0.00007045 Ry

     iteration #  7     ecut=    40.00 Ry     beta= 0.40
     Davidson diagonalization with overlap
     ethr =  2.00E-08,  avg # of iterations =  4.2

     total cpu time spent up to now is     5298.5 secs

     total energy              =  -16565.85528235 Ry
     estimated scf accuracy    <       0.00000868 Ry

     iteration #  8     ecut=    40.00 Ry     beta= 0.40
     Davidson diagonalization with overlap
     ethr =  2.46E-09,  avg # of iterations =  5.2

     total cpu time spent up to now is     5878.3 secs

     total energy              =  -16565.85528517 Ry
     estimated scf accuracy    <       0.00000195 Ry

     iteration #  9     ecut=    40.00 Ry     beta= 0.40
     Davidson diagonalization with overlap
     ethr =  5.53E-10,  avg # of iterations =  5.0

     total cpu time spent up to now is     6564.8 secs

     total energy              =  -16565.85528592 Ry
     estimated scf accuracy    <       0.00000065 Ry

     iteration # 10     ecut=    40.00 Ry     beta= 0.40
     Davidson diagonalization with overlap
     ethr =  1.86E-10,  avg # of iterations =  3.0

     total cpu time spent up to now is     7057.3 secs

     total energy              =  -16565.85528599 Ry
     estimated scf accuracy    <       0.00000015 Ry

     iteration # 11     ecut=    40.00 Ry     beta= 0.40
     Davidson diagonalization with overlap
     ethr =  4.30E-11,  avg # of iterations =  5.5

     total cpu time spent up to now is     7620.0 secs

     End of self-consistent calculation

          k = 0.0000 0.0000 0.0000 ( 60005 PWs)   bands (ev):

   -18.6198 -18.6196 -18.6196 -18.6196 -18.6194 -18.6194 -18.6194 -18.6192
   -13.9061 -13.9061 -13.9061 -13.9060 -13.9060 -13.9005 -13.9005 -13.9005
   -13.8949 -13.8949 -13.8949 -13.8892 -13.8892 -13.8891 -13.8890 -13.8890
   -13.8544 -13.8544 -13.8544 -13.8542 -13.8542 -13.8542 -13.8541 -13.8541
   -13.8541 -13.8540 -13.8540 -13.8540 -13.8539 -13.8539 -13.8539 -13.8539
   -13.8539 -13.8539 -13.8537 -13.8537 -13.8537 -13.8536 -13.8536 -13.8536
    -9.3424  -9.1455  -9.1455  -9.1455  -8.9038  -8.9038  -8.9038  -8.8420
    -8.8420  -8.8420  -8.8420  -8.8420  -8.8420  -8.8415  -8.8415  -8.8415
    -8.8364  -8.8364  -8.8364  -8.6151  -8.6151  -8.6130  -8.6130  -8.6130
    -5.6598  -5.4083  -5.4083  -5.4083  -5.3953  -5.3953  -5.3953  -5.3951
    -5.3951  -5.3951  -5.3951  -5.3951  -5.3951  -5.3913  -5.3913  -5.3913
    -5.3913  -5.3913  -5.3913  -5.3881  -5.3881  -5.3881  -5.3872  -5.3872
    -5.3872  -5.1313  -5.1313  -5.1313  -4.6254  -4.6254  -4.6254  -4.1125
    -0.6229  -0.6229  -0.6229  -0.5198  -0.5198  -0.5198  -0.5198  -0.5198
    -0.5198  -0.3838  -0.3838  -0.3838   0.6070   0.6070   0.6070   0.7389
     0.7389   0.7389   0.8907   0.8907   0.8907   1.2093   1.2093   1.2093
     1.2093   1.2093   1.2093   1.3067   1.3067   1.3067   1.3067   1.3067
     1.3067   1.3552   1.3552   1.3552   1.3552   1.3552   1.3552   1.4195
     1.4195   1.4195   1.4306   1.4306   1.4306   1.4382   1.4382   1.5489
     1.5489   1.5489   1.5746   1.5746   1.5746   1.5746   1.5746   1.5746
     1.6633   1.6633   1.6633   1.8952   1.8952   1.8952   2.0488   2.0488
     2.0488   2.0610   2.0610   2.0610   2.3308   2.3308   2.3308   2.7671
     4.2013   4.2013   4.2013   4.6287   4.6287   4.6287   4.6287   4.6287
     4.6287   4.9604   4.9604   4.9604   5.8993   6.7505   6.9738   6.9738
     7.3223   7.3223   7.3223   7.3826   7.3826   7.3827   7.5515   7.5515
     7.5515   7.6018   7.6018   7.6020   7.7693   7.7697   7.8687   7.9114
     7.9115   7.9115   7.9115

     occupation numbers 
     1.0000   1.0000   1.0000   1.0000   1.0000   1.0000   1.0000   1.0000
     1.0000   1.0000   1.0000   1.0000   1.0000   1.0000   1.0000   1.0000
     1.0000   1.0000   1.0000   1.0000   1.0000   1.0000   1.0000   1.0000
     1.0000   1.0000   1.0000   1.0000   1.0000   1.0000   1.0000   1.0000
     1.0000   1.0000   1.0000   1.0000   1.0000   1.0000   1.0000   1.0000
     1.0000   1.0000   1.0000   1.0000   1.0000   1.0000   1.0000   1.0000
     1.0000   1.0000   1.0000   1.0000   1.0000   1.0000   1.0000   1.0000
     1.0000   1.0000   1.0000   1.0000   1.0000   1.0000   1.0000   1.0000
     1.0000   1.0000   1.0000   1.0000   1.0000   1.0000   1.0000   1.0000
     1.0000   1.0000   1.0000   1.0000   1.0000   1.0000   1.0000   1.0000
     1.0000   1.0000   1.0000   1.0000   1.0000   1.0000   1.0000   1.0000
     1.0000   1.0000   1.0000   1.0000   1.0000   1.0000   1.0000   1.0000
     1.0000   1.0000   1.0000   1.0000   1.0000   1.0000   1.0000   1.0000
     1.0000   1.0000   1.0000   1.0000   1.0000   1.0000   1.0000   1.0000
     1.0000   1.0000   1.0000   1.0000   1.0000   1.0000   1.0000   1.0000
     1.0000   1.0000   1.0000   1.0000   1.0000   1.0000   1.0000   1.0000
     1.0000   1.0000   1.0000   1.0000   1.0000   1.0000   1.0000   1.0000
     1.0000   1.0000   1.0000   1.0000   1.0000   1.0000   1.0000   1.0000
     1.0000   1.0000   1.0000   1.0000   1.0000   1.0000   1.0000   1.0000
     1.0000   1.0000   1.0000   1.0000   1.0000   1.0000   1.0000   1.0000
     1.0000   1.0000   1.0000   1.0000   1.0000   1.0000   1.0014   1.0014
     1.0014   1.0019   1.0019   1.0019   1.0763   1.0763   1.0763   0.1103
     0.0000   0.0000   0.0000   0.0000   0.0000   0.0000   0.0000   0.0000
     0.0000   0.0000   0.0000   0.0000   0.0000   0.0000   0.0000   0.0000
     0.0000   0.0000   0.0000   0.0000   0.0000   0.0000   0.0000   0.0000
     0.0000   0.0000   0.0000   0.0000   0.0000   0.0000   0.0000   0.0000
     0.0000   0.0000   0.0000

          k = 0.0000 0.0000 0.3333 ( 59944 PWs)   bands (ev):

   -18.6197 -18.6196 -18.6195 -18.6195 -18.6194 -18.6194 -18.6193 -18.6192
   -13.9060 -13.9059 -13.9041 -13.9041 -13.9032 -13.9013 -13.9013 -13.8977
   -13.8976 -13.8940 -13.8940 -13.8920 -13.8911 -13.8911 -13.8892 -13.8891
   -13.8544 -13.8543 -13.8542 -13.8542 -13.8542 -13.8542 -13.8541 -13.8541
   -13.8541 -13.8540 -13.8540 -13.8540 -13.8539 -13.8539 -13.8539 -13.8539
   -13.8539 -13.8539 -13.8537 -13.8537 -13.8537 -13.8537 -13.8537 -13.8536
    -9.3068  -9.2150  -9.1100  -9.1100  -9.0125  -9.0125  -8.8878  -8.8542
    -8.8419  -8.8419  -8.8416  -8.8416  -8.8406  -8.8406  -8.8378  -8.8378
    -8.7644  -8.7363  -8.7363  -8.6578  -8.6451  -8.6451  -8.6146  -8.6135
    -5.5401  -5.4050  -5.4050  -5.4033  -5.3984  -5.3984  -5.3943  -5.3943
    -5.3942  -5.3942  -5.3942  -5.3942  -5.3932  -5.3927  -5.3923  -5.3923
    -5.3923  -5.3923  -5.3905  -5.3905  -5.3898  -5.3898  -5.3889  -5.3889
    -5.3885  -5.2779  -5.0203  -5.0203  -4.7705  -4.7705  -4.5190  -4.2669
    -0.5988  -0.5988  -0.5474  -0.5474  -0.4887  -0.4887  -0.4210  -0.4210
    -0.2305  -0.1328  -0.1328   0.0067   0.5595   0.6392   0.6696   0.6696
     0.7051   0.7138   0.7138   0.7994   0.7994   0.8133   0.8133   0.8999
     0.9758   0.9758   1.2021   1.2021   1.2216   1.2216   1.3186   1.3186
     1.3429   1.3429   1.3758   1.3758   1.4108   1.4108   1.4325   1.4363
     1.4506   1.5016   1.5016   1.5094   1.5094   1.5104   1.5104   1.5152
     1.5537   1.5537   1.5898   1.5898   1.6017   1.6017   1.6246   1.6312
     1.6312   1.6567   1.6754   1.6754   1.9183   1.9183   1.9296   1.9296
     1.9380   1.9380   2.0519   2.0580   2.0774   2.0774   2.3567   2.4807
     4.3206   4.3206   4.5329   4.5329   4.7212   4.7212   4.8877   4.8877
     5.2136   5.5309   5.5309   5.8177   6.1516   6.7134   6.7866   6.9437
     7.0553   7.0553   7.1126   7.1797   7.3952   7.4483   7.4483   7.4506
     7.4529   7.4681   7.5610   7.5610   7.5927   7.5928   7.6737   7.7354
     7.7354   7.7749   7.7750

     occupation numbers 
     1.0000   1.0000   1.0000   1.0000   1.0000   1.0000   1.0000   1.0000
     1.0000   1.0000   1.0000   1.0000   1.0000   1.0000   1.0000   1.0000
     1.0000   1.0000   1.0000   1.0000   1.0000   1.0000   1.0000   1.0000
     1.0000   1.0000   1.0000   1.0000   1.0000   1.0000   1.0000   1.0000
     1.0000   1.0000   1.0000   1.0000   1.0000   1.0000   1.0000   1.0000
     1.0000   1.0000   1.0000   1.0000   1.0000   1.0000   1.0000   1.0000
     1.0000   1.0000   1.0000   1.0000   1.0000   1.0000   1.0000   1.0000
     1.0000   1.0000   1.0000   1.0000   1.0000   1.0000   1.0000   1.0000
     1.0000   1.0000   1.0000   1.0000   1.0000   1.0000   1.0000   1.0000
     1.0000   1.0000   1.0000   1.0000   1.0000   1.0000   1.0000   1.0000
     1.0000   1.0000   1.0000   1.0000   1.0000   1.0000   1.0000   1.0000
     1.0000   1.0000   1.0000   1.0000   1.0000   1.0000   1.0000   1.0000
     1.0000   1.0000   1.0000   1.0000   1.0000   1.0000   1.0000   1.0000
     1.0000   1.0000   1.0000   1.0000   1.0000   1.0000   1.0000   1.0000
     1.0000   1.0000   1.0000   1.0000   1.0000   1.0000   1.0000   1.0000
     1.0000   1.0000   1.0000   1.0000   1.0000   1.0000   1.0000   1.0000
     1.0000   1.0000   1.0000   1.0000   1.0000   1.0000   1.0000   1.0000
     1.0000   1.0000   1.0000   1.0000   1.0000   1.0000   1.0000   1.0000
     1.0000   1.0000   1.0000   1.0000   1.0000   1.0000   1.0000   1.0000
     1.0000   1.0000   1.0000   1.0000   1.0000   1.0000   1.0000   1.0000
     1.0000   1.0000   1.0000   1.0000   1.0000   1.0000   1.0001   1.0001
     1.0001   1.0001   1.0015   1.0017   1.0026   1.0026   1.0826   0.9717
     0.0000   0.0000   0.0000   0.0000   0.0000   0.0000   0.0000   0.0000
     0.0000   0.0000   0.0000   0.0000   0.0000   0.0000   0.0000   0.0000
     0.0000   0.0000   0.0000   0.0000   0.0000   0.0000   0.0000   0.0000
     0.0000   0.0000   0.0000   0.0000   0.0000   0.0000   0.0000   0.0000
     0.0000   0.0000   0.0000

          k = 0.0000 0.3333 0.3333 ( 59892 PWs)   bands (ev):

   -18.6197 -18.6196 -18.6196 -18.6195 -18.6195 -18.6194 -18.6194 -18.6193
   -13.9046 -13.9041 -13.9041 -13.9019 -13.9018 -13.9018 -13.8985 -13.8985
   -13.8968 -13.8967 -13.8934 -13.8934 -13.8933 -13.8911 -13.8910 -13.8905
   -13.8542 -13.8542 -13.8542 -13.8542 -13.8542 -13.8541 -13.8541 -13.8541
   -13.8541 -13.8540 -13.8540 -13.8540 -13.8540 -13.8539 -13.8539 -13.8539
   -13.8539 -13.8539 -13.8538 -13.8537 -13.8537 -13.8537 -13.8537 -13.8537
    -9.2717  -9.1805  -9.1805  -9.0894  -9.0772  -8.9878  -8.9878  -8.9239
    -8.8413  -8.8408  -8.8408  -8.8388  -8.7877  -8.7828  -8.7667  -8.7667
    -8.7473  -8.7473  -8.7138  -8.6744  -8.6713  -8.6448  -8.6448  -8.6371
    -5.4307  -5.4041  -5.3982  -5.3982  -5.3980  -5.3978  -5.3978  -5.3956
    -5.3951  -5.3949  -5.3948  -5.3937  -5.3937  -5.3934  -5.3928  -5.3917
    -5.3915  -5.3915  -5.3912  -5.3912  -5.3904  -5.3898  -5.3895  -5.3891
    -5.3891  -5.1648  -5.1648  -4.9144  -4.9122  -4.6647  -4.6647  -4.4165
    -0.5731  -0.5182  -0.5182  -0.4552  -0.2842  -0.1685  -0.1685  -0.1632
    -0.1319  -0.0403  -0.0387  -0.0387   0.5631   0.5767   0.5767   0.6335
     0.6920   0.6920   0.7233   0.7292   0.7292   0.7504   0.7716   0.7873
     0.8184   0.9792   0.9792   1.0453   1.0479   1.1470   1.1841   1.1841
     1.2201   1.2201   1.3296   1.3470   1.3631   1.3978   1.3978   1.4093
     1.4839   1.5229   1.5274   1.5274   1.5300   1.5496   1.5496   1.5640
     1.5822   1.5858   1.5935   1.5935   1.6234   1.6234   1.6700   1.6898
     1.6898   1.7086   1.7363   1.7540   1.7540   1.7889   1.8636   1.8898
     1.8958   1.9438   1.9438   1.9460   1.9783   2.0855   2.0855   2.1769
     4.4313   4.6307   4.6307   4.8083   5.2446   5.3322   5.4482   5.4482
     5.5706   5.6322   5.7470   5.7470   6.3628   6.7714   6.7714   6.8927
     6.8927   6.9102   6.9612   7.0784   7.1650   7.1650   7.1962   7.2783
     7.2926   7.3401   7.3486   7.4160   7.4391   7.4392   7.5700   7.5845
     7.5845   7.6231   7.6955

     occupation numbers 
     1.0000   1.0000   1.0000   1.0000   1.0000   1.0000   1.0000   1.0000
     1.0000   1.0000   1.0000   1.0000   1.0000   1.0000   1.0000   1.0000
     1.0000   1.0000   1.0000   1.0000   1.0000   1.0000   1.0000   1.0000
     1.0000   1.0000   1.0000   1.0000   1.0000   1.0000   1.0000   1.0000
     1.0000   1.0000   1.0000   1.0000   1.0000   1.0000   1.0000   1.0000
     1.0000   1.0000   1.0000   1.0000   1.0000   1.0000   1.0000   1.0000
     1.0000   1.0000   1.0000   1.0000   1.0000   1.0000   1.0000   1.0000
     1.0000   1.0000   1.0000   1.0000   1.0000   1.0000   1.0000   1.0000
     1.0000   1.0000   1.0000   1.0000   1.0000   1.0000   1.0000   1.0000
     1.0000   1.0000   1.0000   1.0000   1.0000   1.0000   1.0000   1.0000
     1.0000   1.0000   1.0000   1.0000   1.0000   1.0000   1.0000   1.0000
     1.0000   1.0000   1.0000   1.0000   1.0000   1.0000   1.0000   1.0000
     1.0000   1.0000   1.0000   1.0000   1.0000   1.0000   1.0000   1.0000
     1.0000   1.0000   1.0000   1.0000   1.0000   1.0000   1.0000   1.0000
     1.0000   1.0000   1.0000   1.0000   1.0000   1.0000   1.0000   1.0000
     1.0000   1.0000   1.0000   1.0000   1.0000   1.0000   1.0000   1.0000
     1.0000   1.0000   1.0000   1.0000   1.0000   1.0000   1.0000   1.0000
     1.0000   1.0000   1.0000   1.0000   1.0000   1.0000   1.0000   1.0000
     1.0000   1.0000   1.0000   1.0000   1.0000   1.0000   1.0000   1.0000
     1.0000   1.0000   1.0000   1.0000   1.0000   1.0000   1.0000   1.0000
     1.0000   1.0000   1.0000   1.0000   1.0000   1.0000   1.0000   1.0000
     1.0000   1.0001   1.0001   1.0001   1.0003   1.0031   1.0031   1.0157
     0.0000   0.0000   0.0000   0.0000   0.0000   0.0000   0.0000   0.0000
     0.0000   0.0000   0.0000   0.0000   0.0000   0.0000   0.0000   0.0000
     0.0000   0.0000   0.0000   0.0000   0.0000   0.0000   0.0000   0.0000
     0.0000   0.0000   0.0000   0.0000   0.0000   0.0000   0.0000   0.0000
     0.0000   0.0000   0.0000

          k = 0.3333 0.3333 0.3333 ( 59956 PWs)   bands (ev):

   -18.6196 -18.6195 -18.6195 -18.6195 -18.6194 -18.6194 -18.6194 -18.6193
   -13.9018 -13.9018 -13.9018 -13.9018 -13.9018 -13.8991 -13.8990 -13.8990
   -13.8963 -13.8962 -13.8962 -13.8934 -13.8934 -13.8934 -13.8933 -13.8933
   -13.8542 -13.8542 -13.8542 -13.8542 -13.8542 -13.8541 -13.8541 -13.8541
   -13.8541 -13.8540 -13.8540 -13.8540 -13.8540 -13.8540 -13.8539 -13.8539
   -13.8539 -13.8539 -13.8538 -13.8538 -13.8538 -13.8537 -13.8537 -13.8537
    -9.2374  -9.1479  -9.1479  -9.1479  -9.0617  -9.0617  -9.0617  -8.9890
    -8.7865  -8.7865  -8.7865  -8.7841  -8.7841  -8.7679  -8.7679  -8.7679
    -8.7317  -8.7317  -8.7317  -8.6736  -8.6736  -8.6720  -8.6720  -8.6720
    -5.4018  -5.4018  -5.3974  -5.3971  -5.3971  -5.3971  -5.3971  -5.3971
    -5.3971  -5.3954  -5.3954  -5.3954  -5.3950  -5.3950  -5.3943  -5.3943
    -5.3943  -5.3897  -5.3897  -5.3897  -5.3879  -5.3877  -5.3877  -5.3877
    -5.3063  -5.0559  -5.0559  -5.0558  -4.8084  -4.8084  -4.8084  -4.5626
    -0.2567  -0.2567  -0.1966  -0.1966  -0.1966  -0.0835  -0.0835  -0.0835
    -0.0803  -0.0803  -0.0803  -0.0383   0.5892   0.5892   0.5892   0.5928
     0.5928   0.5928   0.6477   0.6477   0.6478   0.6622   0.6622   0.6868
     0.9541   0.9541   0.9950   0.9950   0.9950   1.1265   1.1265   1.1265
     1.1689   1.1689   1.1689   1.2653   1.2653   1.2653   1.3137   1.3137
     1.4224   1.4394   1.4394   1.4394   1.4835   1.4835   1.4835   1.6647
     1.6768   1.6768   1.6768   1.7058   1.7058   1.7129   1.7129   1.7129
     1.7300   1.7300   1.7300   1.7351   1.7655   1.7655   1.7655   1.8206
     1.8206   1.8206   1.8781   1.8781   1.8968   1.8968   1.8968   1.9193
     5.3242   5.3242   5.4395   5.4876   5.4876   5.4876   5.5528   5.5528
     5.5528   5.6710   5.6710   5.6710   6.5113   6.8099   6.8099   6.8099
     6.8437   6.8437   6.8437   7.0062   7.0063   7.0063   7.1143   7.1405
     7.1405   7.1796   7.1796   7.1797   7.1839   7.2793   7.2793   7.2793
     7.3992   7.3992   7.6475

     occupation numbers 
     1.0000   1.0000   1.0000   1.0000   1.0000   1.0000   1.0000   1.0000
     1.0000   1.0000   1.0000   1.0000   1.0000   1.0000   1.0000   1.0000
     1.0000   1.0000   1.0000   1.0000   1.0000   1.0000   1.0000   1.0000
     1.0000   1.0000   1.0000   1.0000   1.0000   1.0000   1.0000   1.0000
     1.0000   1.0000   1.0000   1.0000   1.0000   1.0000   1.0000   1.0000
     1.0000   1.0000   1.0000   1.0000   1.0000   1.0000   1.0000   1.0000
     1.0000   1.0000   1.0000   1.0000   1.0000   1.0000   1.0000   1.0000
     1.0000   1.0000   1.0000   1.0000   1.0000   1.0000   1.0000   1.0000
     1.0000   1.0000   1.0000   1.0000   1.0000   1.0000   1.0000   1.0000
     1.0000   1.0000   1.0000   1.0000   1.0000   1.0000   1.0000   1.0000
     1.0000   1.0000   1.0000   1.0000   1.0000   1.0000   1.0000   1.0000
     1.0000   1.0000   1.0000   1.0000   1.0000   1.0000   1.0000   1.0000
     1.0000   1.0000   1.0000   1.0000   1.0000   1.0000   1.0000   1.0000
     1.0000   1.0000   1.0000   1.0000   1.0000   1.0000   1.0000   1.0000
     1.0000   1.0000   1.0000   1.0000   1.0000   1.0000   1.0000   1.0000
     1.0000   1.0000   1.0000   1.0000   1.0000   1.0000   1.0000   1.0000
     1.0000   1.0000   1.0000   1.0000   1.0000   1.0000   1.0000   1.0000
     1.0000   1.0000   1.0000   1.0000   1.0000   1.0000   1.0000   1.0000
     1.0000   1.0000   1.0000   1.0000   1.0000   1.0000   1.0000   1.0000
     1.0000   1.0000   1.0000   1.0000   1.0000   1.0000   1.0000   1.0000
     1.0000   1.0000   1.0000   1.0000   1.0000   1.0000   1.0000   1.0000
     1.0000   1.0000   1.0000   1.0000   1.0000   1.0000   1.0000   1.0001
     0.0000   0.0000   0.0000   0.0000   0.0000   0.0000   0.0000   0.0000
     0.0000   0.0000   0.0000   0.0000   0.0000   0.0000   0.0000   0.0000
     0.0000   0.0000   0.0000   0.0000   0.0000   0.0000   0.0000   0.0000
     0.0000   0.0000   0.0000   0.0000   0.0000   0.0000   0.0000   0.0000
     0.0000   0.0000   0.0000

     the Fermi energy is     2.6510 ev

!    total energy              =  -16565.85528603 Ry
     estimated scf accuracy    <          3.2E-09 Ry
     smearing contrib. (-TS)   =       0.00294146 Ry
     internal energy E=F+TS    =  -16565.85822748 Ry

     The total energy is F=E-TS. E is the sum of the following terms:
     one-electron contribution =    -767.65719141 Ry
     hartree contribution      =     549.49473118 Ry
     xc contribution           =   -1598.31290456 Ry
     ewald contribution        =   -1229.22289246 Ry
     one-center paw contrib.   =  -13520.15997023 Ry
      -> PAW hartree energy AE =     824.05487933 Ry
      -> PAW hartree energy PS =    -822.26893239 Ry
      -> PAW xc energy AE      =   -7623.07971642 Ry
      -> PAW xc energy PS      =     511.66697862 Ry
      -> total E_H with PAW    =     551.28067812 Ry
      -> total E_XC with PAW   =   -8709.72564236 Ry

     convergence has been achieved in  11 iterations

     Forces acting on atoms (cartesian axes, Ry/au):

     atom    1 type  1   force =    -0.00000004   -0.00000004   -0.00000004
     atom    2 type  1   force =    -0.00000004   -0.00000004    0.00000004
     atom    3 type  1   force =    -0.00000004    0.00000004   -0.00000004
     atom    4 type  1   force =    -0.00000004    0.00000004    0.00000004
     atom    5 type  1   force =     0.00000004   -0.00000004   -0.00000004
     atom    6 type  1   force =     0.00000004   -0.00000004    0.00000004
     atom    7 type  1   force =     0.00000004    0.00000004   -0.00000004
     atom    8 type  1   force =     0.00000004    0.00000004    0.00000004
     atom    9 type  3   force =     0.00000000    0.00000000    0.00000000
     atom   10 type  3   force =     0.00000000    0.00000000    0.00000000
     atom   11 type  3   force =     0.00000000    0.00000000    0.00000000
     atom   12 type  3   force =     0.00000000    0.00000000    0.00000000
     atom   13 type  3   force =     0.00000000    0.00000000    0.00000000
     atom   14 type  3   force =     0.00000000    0.00000000    0.00000000
     atom   15 type  3   force =     0.00000000    0.00000000    0.00000000
     atom   16 type  3   force =     0.00000000    0.00000000    0.00000000
     atom   17 type  2   force =     0.00000000    0.00000000   -0.00000355
     atom   18 type  2   force =     0.00000000    0.00000000    0.00000355
     atom   19 type  2   force =     0.00000000    0.00000000   -0.00000649
     atom   20 type  2   force =     0.00000000    0.00000000    0.00000649
     atom   21 type  2   force =    -0.00000000    0.00000000   -0.00000649
     atom   22 type  2   force =     0.00000000    0.00000000    0.00000649
     atom   23 type  2   force =     0.00000000    0.00000000   -0.00000362
     atom   24 type  2   force =     0.00000000    0.00000000    0.00000362
     atom   25 type  2   force =     0.00000000   -0.00000355    0.00000000
     atom   26 type  2   force =     0.00000000   -0.00000649    0.00000000
     atom   27 type  2   force =     0.00000000    0.00000355    0.00000000
     atom   28 type  2   force =     0.00000000    0.00000649    0.00000000
     atom   29 type  2   force =     0.00000000   -0.00000649    0.00000000
     atom   30 type  2   force =     0.00000000   -0.00000362    0.00000000
     atom   31 type  2   force =     0.00000000    0.00000649    0.00000000
     atom   32 type  2   force =    -0.00000000    0.00000362   -0.00000000
     atom   33 type  2   force =    -0.00000355    0.00000000    0.00000000
     atom   34 type  2   force =    -0.00000649    0.00000000    0.00000000
     atom   35 type  2   force =    -0.00000649    0.00000000    0.00000000
     atom   36 type  2   force =    -0.00000362   -0.00000000    0.00000000
     atom   37 type  2   force =     0.00000355    0.00000000    0.00000000
     atom   38 type  2   force =     0.00000649    0.00000000    0.00000000
     atom   39 type  2   force =     0.00000649    0.00000000    0.00000000
     atom   40 type  2   force =     0.00000362    0.00000000    0.00000000
     The non-local contrib.  to forces
     atom    1 type  1   force =     0.00000007    0.00000007    0.00000007
     atom    2 type  1   force =     0.00000007    0.00000007   -0.00000007
     atom    3 type  1   force =     0.00000007   -0.00000007    0.00000007
     atom    4 type  1   force =     0.00000007   -0.00000007   -0.00000007
     atom    5 type  1   force =    -0.00000007    0.00000007    0.00000007
     atom    6 type  1   force =    -0.00000007    0.00000007   -0.00000007
     atom    7 type  1   force =    -0.00000007   -0.00000007    0.00000007
     atom    8 type  1   force =    -0.00000007   -0.00000007   -0.00000007
     atom    9 type  3   force =     0.00000000    0.00000000    0.00000000
     atom   10 type  3   force =     0.00000000    0.00000000    0.00000000
     atom   11 type  3   force =     0.00000000    0.00000000    0.00000000
     atom   12 type  3   force =     0.00000000    0.00000000    0.00000000
     atom   13 type  3   force =     0.00000000    0.00000000    0.00000000
     atom   14 type  3   force =     0.00000000    0.00000000    0.00000000
     atom   15 type  3   force =     0.00000000    0.00000000    0.00000000
     atom   16 type  3   force =     0.00000000    0.00000000    0.00000000
     atom   17 type  2   force =     0.00000000    0.00000000    0.00000211
     atom   18 type  2   force =     0.00000000    0.00000000   -0.00000211
     atom   19 type  2   force =     0.00000000    0.00000000   -0.00000251
     atom   20 type  2   force =     0.00000000    0.00000000    0.00000251
     atom   21 type  2   force =     0.00000000    0.00000000   -0.00000251
     atom   22 type  2   force =     0.00000000    0.00000000    0.00000251
     atom   23 type  2   force =     0.00000000    0.00000000    0.00000302
     atom   24 type  2   force =     0.00000000    0.00000000   -0.00000302
     atom   25 type  2   force =     0.00000000    0.00000211    0.00000000
     atom   26 type  2   force =     0.00000000   -0.00000251    0.00000000
     atom   27 type  2   force =     0.00000000   -0.00000211    0.00000000
     atom   28 type  2   force =     0.00000000    0.00000251    0.00000000
     atom   29 type  2   force =     0.00000000   -0.00000251    0.00000000
     atom   30 type  2   force =     0.00000000    0.00000302    0.00000000
     atom   31 type  2   force =     0.00000000    0.00000251    0.00000000
     atom   32 type  2   force =     0.00000000   -0.00000302    0.00000000
     atom   33 type  2   force =     0.00000211    0.00000000    0.00000000
     atom   34 type  2   force =    -0.00000251    0.00000000    0.00000000
     atom   35 type  2   force =    -0.00000251    0.00000000    0.00000000
     atom   36 type  2   force =     0.00000302    0.00000000    0.00000000
     atom   37 type  2   force =    -0.00000211    0.00000000    0.00000000
     atom   38 type  2   force =     0.00000251    0.00000000   -0.00000000
     atom   39 type  2   force =     0.00000251   -0.00000000    0.00000000
     atom   40 type  2   force =    -0.00000302    0.00000000    0.00000000
     The ionic contribution  to forces
     atom    1 type  1   force =    -0.00004935   -0.00004935   -0.00004935
     atom    2 type  1   force =    -0.00004935   -0.00004935    0.00004935
     atom    3 type  1   force =    -0.00004935    0.00004935   -0.00004935
     atom    4 type  1   force =    -0.00004935    0.00004935    0.00004935
     atom    5 type  1   force =     0.00004935   -0.00004935   -0.00004935
     atom    6 type  1   force =     0.00004935   -0.00004935    0.00004935
     atom    7 type  1   force =     0.00004935    0.00004935   -0.00004935
     atom    8 type  1   force =     0.00004935    0.00004935    0.00004935
     atom    9 type  3   force =    -0.00000000   -0.00000000   -0.00000000
     atom   10 type  3   force =     0.00000000    0.00000000    0.00000000
     atom   11 type  3   force =     0.00000000    0.00000000    0.00000000
     atom   12 type  3   force =    -0.00000000    0.00000000    0.00000000
     atom   13 type  3   force =     0.00000000    0.00000000    0.00000000
     atom   14 type  3   force =     0.00000000   -0.00000000    0.00000000
     atom   15 type  3   force =     0.00000000    0.00000000   -0.00000000
     atom   16 type  3   force =     0.00000000    0.00000000    0.00000000
     atom   17 type  2   force =    -0.00000000   -0.00000000   -0.00020855
     atom   18 type  2   force =    -0.00000000   -0.00000000    0.00020855
     atom   19 type  2   force =    -0.00000000    0.00000000   -0.00021075
     atom   20 type  2   force =    -0.00000000    0.00000000    0.00021075
     atom   21 type  2   force =     0.00000000   -0.00000000   -0.00021075
     atom   22 type  2   force =     0.00000000   -0.00000000    0.00021075
     atom   23 type  2   force =     0.00000000    0.00000000   -0.00021115
     atom   24 type  2   force =    -0.00000000   -0.00000000    0.00021115
     atom   25 type  2   force =    -0.00000000   -0.00020855   -0.00000000
     atom   26 type  2   force =    -0.00000000   -0.00021075    0.00000000
     atom   27 type  2   force =    -0.00000000    0.00020855   -0.00000000
     atom   28 type  2   force =    -0.00000000    0.00021075    0.00000000
     atom   29 type  2   force =     0.00000000   -0.00021075   -0.00000000
     atom   30 type  2   force =     0.00000000   -0.00021115    0.00000000
     atom   31 type  2   force =     0.00000000    0.00021075   -0.00000000
     atom   32 type  2   force =    -0.00000000    0.00021115   -0.00000000
     atom   33 type  2   force =    -0.00020855   -0.00000000   -0.00000000
     atom   34 type  2   force =    -0.00021075   -0.00000000    0.00000000
     atom   35 type  2   force =    -0.00021075    0.00000000   -0.00000000
     atom   36 type  2   force =    -0.00021115    0.00000000    0.00000000
     atom   37 type  2   force =     0.00020855   -0.00000000   -0.00000000
     atom   38 type  2   force =     0.00021075   -0.00000000    0.00000000
     atom   39 type  2   force =     0.00021075    0.00000000   -0.00000000
     atom   40 type  2   force =     0.00021115   -0.00000000   -0.00000000
     The local contribution  to forces
     atom    1 type  1   force =     0.00004567    0.00004567    0.00004567
     atom    2 type  1   force =     0.00004567    0.00004567   -0.00004567
     atom    3 type  1   force =     0.00004567   -0.00004567    0.00004567
     atom    4 type  1   force =     0.00004567   -0.00004567   -0.00004567
     atom    5 type  1   force =    -0.00004567    0.00004567    0.00004567
     atom    6 type  1   force =    -0.00004567    0.00004567   -0.00004567
     atom    7 type  1   force =    -0.00004567   -0.00004567    0.00004567
     atom    8 type  1   force =    -0.00004567   -0.00004567   -0.00004567
     atom    9 type  3   force =     0.00000000    0.00000000    0.00000000
     atom   10 type  3   force =     0.00000000    0.00000000    0.00000000
     atom   11 type  3   force =     0.00000000    0.00000000    0.00000000
     atom   12 type  3   force =     0.00000000    0.00000000    0.00000000
     atom   13 type  3   force =     0.00000000    0.00000000    0.00000000
     atom   14 type  3   force =     0.00000000    0.00000000    0.00000000
     atom   15 type  3   force =     0.00000000    0.00000000    0.00000000
     atom   16 type  3   force =     0.00000000    0.00000000    0.00000000
     atom   17 type  2   force =     0.00000000    0.00000000    0.00021023
     atom   18 type  2   force =     0.00000000    0.00000000   -0.00021023
     atom   19 type  2   force =    -0.00000000   -0.00000000    0.00018638
     atom   20 type  2   force =     0.00000000    0.00000000   -0.00018638
     atom   21 type  2   force =    -0.00000000    0.00000000    0.00018638
     atom   22 type  2   force =     0.00000000   -0.00000000   -0.00018638
     atom   23 type  2   force =     0.00000000    0.00000000    0.00021673
     atom   24 type  2   force =    -0.00000000   -0.00000000   -0.00021673
     atom   25 type  2   force =    -0.00000000    0.00021023   -0.00000000
     atom   26 type  2   force =     0.00000000    0.00018638   -0.00000000
     atom   27 type  2   force =     0.00000000   -0.00021023   -0.00000000
     atom   28 type  2   force =     0.00000000   -0.00018638    0.00000000
     atom   29 type  2   force =    -0.00000000    0.00018638    0.00000000
     atom   30 type  2   force =     0.00000000    0.00021673    0.00000000
     atom   31 type  2   force =     0.00000000   -0.00018638    0.00000000
     atom   32 type  2   force =     0.00000000   -0.00021673   -0.00000000
     atom   33 type  2   force =     0.00021023   -0.00000000    0.00000000
     atom   34 type  2   force =     0.00018638    0.00000000   -0.00000000
     atom   35 type  2   force =     0.00018638   -0.00000000   -0.00000000
     atom   36 type  2   force =     0.00021673    0.00000000    0.00000000
     atom   37 type  2   force =    -0.00021023   -0.00000000    0.00000000
     atom   38 type  2   force =    -0.00018638    0.00000000    0.00000000
     atom   39 type  2   force =    -0.00018638    0.00000000   -0.00000000
     atom   40 type  2   force =    -0.00021673    0.00000000   -0.00000000
     The core correction contribution to forces
     atom    1 type  1   force =    -0.00000004   -0.00000004   -0.00000004
     atom    2 type  1   force =    -0.00000004   -0.00000004    0.00000004
     atom    3 type  1   force =    -0.00000004    0.00000004   -0.00000004
     atom    4 type  1   force =    -0.00000004    0.00000004    0.00000004
     atom    5 type  1   force =     0.00000004   -0.00000004   -0.00000004
     atom    6 type  1   force =     0.00000004   -0.00000004    0.00000004
     atom    7 type  1   force =     0.00000004    0.00000004   -0.00000004
     atom    8 type  1   force =     0.00000004    0.00000004    0.00000004
     atom    9 type  3   force =     0.00000000    0.00000000    0.00000000
     atom   10 type  3   force =    -0.00000000   -0.00000000    0.00000000
     atom   11 type  3   force =    -0.00000000    0.00000000   -0.00000000
     atom   12 type  3   force =     0.00000000   -0.00000000   -0.00000000
     atom   13 type  3   force =     0.00000000   -0.00000000   -0.00000000
     atom   14 type  3   force =    -0.00000000    0.00000000   -0.00000000
     atom   15 type  3   force =    -0.00000000   -0.00000000    0.00000000
     atom   16 type  3   force =     0.00000000    0.00000000    0.00000000
     atom   17 type  2   force =     0.00000000    0.00000000    0.00000043
     atom   18 type  2   force =     0.00000000    0.00000000   -0.00000043
     atom   19 type  2   force =     0.00000000   -0.00000000    0.00000007
     atom   20 type  2   force =     0.00000000   -0.00000000   -0.00000007
     atom   21 type  2   force =    -0.00000000    0.00000000    0.00000007
     atom   22 type  2   force =    -0.00000000    0.00000000   -0.00000007
     atom   23 type  2   force =    -0.00000000   -0.00000000    0.00000098
     atom   24 type  2   force =     0.00000000    0.00000000   -0.00000098
     atom   25 type  2   force =     0.00000000    0.00000043    0.00000000
     atom   26 type  2   force =     0.00000000    0.00000007   -0.00000000
     atom   27 type  2   force =     0.00000000   -0.00000043    0.00000000
     atom   28 type  2   force =     0.00000000   -0.00000007   -0.00000000
     atom   29 type  2   force =    -0.00000000    0.00000007    0.00000000
     atom   30 type  2   force =    -0.00000000    0.00000098   -0.00000000
     atom   31 type  2   force =    -0.00000000   -0.00000007    0.00000000
     atom   32 type  2   force =     0.00000000   -0.00000098    0.00000000
     atom   33 type  2   force =     0.00000043    0.00000000    0.00000000
     atom   34 type  2   force =     0.00000007    0.00000000   -0.00000000
     atom   35 type  2   force =     0.00000007   -0.00000000    0.00000000
     atom   36 type  2   force =     0.00000098   -0.00000000   -0.00000000
     atom   37 type  2   force =    -0.00000043    0.00000000    0.00000000
     atom   38 type  2   force =    -0.00000007    0.00000000   -0.00000000
     atom   39 type  2   force =    -0.00000007   -0.00000000    0.00000000
     atom   40 type  2   force =    -0.00000098    0.00000000    0.00000000
     The Hubbard contrib.    to forces
     atom    1 type  1   force =     0.00000000    0.00000000    0.00000000
     atom    2 type  1   force =     0.00000000    0.00000000    0.00000000
     atom    3 type  1   force =     0.00000000    0.00000000    0.00000000
     atom    4 type  1   force =     0.00000000    0.00000000    0.00000000
     atom    5 type  1   force =     0.00000000    0.00000000    0.00000000
     atom    6 type  1   force =     0.00000000    0.00000000    0.00000000
     atom    7 type  1   force =     0.00000000    0.00000000    0.00000000
     atom    8 type  1   force =     0.00000000    0.00000000    0.00000000
     atom    9 type  3   force =     0.00000000    0.00000000    0.00000000
     atom   10 type  3   force =     0.00000000    0.00000000    0.00000000
     atom   11 type  3   force =     0.00000000    0.00000000    0.00000000
     atom   12 type  3   force =     0.00000000    0.00000000    0.00000000
     atom   13 type  3   force =     0.00000000    0.00000000    0.00000000
     atom   14 type  3   force =     0.00000000    0.00000000    0.00000000
     atom   15 type  3   force =     0.00000000    0.00000000    0.00000000
     atom   16 type  3   force =     0.00000000    0.00000000    0.00000000
     atom   17 type  2   force =     0.00000000    0.00000000    0.00000000
     atom   18 type  2   force =     0.00000000    0.00000000    0.00000000
     atom   19 type  2   force =     0.00000000    0.00000000    0.00000000
     atom   20 type  2   force =     0.00000000    0.00000000    0.00000000
     atom   21 type  2   force =     0.00000000    0.00000000    0.00000000
     atom   22 type  2   force =     0.00000000    0.00000000    0.00000000
     atom   23 type  2   force =     0.00000000    0.00000000    0.00000000
     atom   24 type  2   force =     0.00000000    0.00000000    0.00000000
     atom   25 type  2   force =     0.00000000    0.00000000    0.00000000
     atom   26 type  2   force =     0.00000000    0.00000000    0.00000000
     atom   27 type  2   force =     0.00000000    0.00000000    0.00000000
     atom   28 type  2   force =     0.00000000    0.00000000    0.00000000
     atom   29 type  2   force =     0.00000000    0.00000000    0.00000000
     atom   30 type  2   force =     0.00000000    0.00000000    0.00000000
     atom   31 type  2   force =     0.00000000    0.00000000    0.00000000
     atom   32 type  2   force =     0.00000000    0.00000000    0.00000000
     atom   33 type  2   force =     0.00000000    0.00000000    0.00000000
     atom   34 type  2   force =     0.00000000    0.00000000    0.00000000
     atom   35 type  2   force =     0.00000000    0.00000000    0.00000000
     atom   36 type  2   force =     0.00000000    0.00000000    0.00000000
     atom   37 type  2   force =     0.00000000    0.00000000    0.00000000
     atom   38 type  2   force =     0.00000000    0.00000000    0.00000000
     atom   39 type  2   force =     0.00000000    0.00000000    0.00000000
     atom   40 type  2   force =     0.00000000    0.00000000    0.00000000
     The SCF correction term to forces
     atom    1 type  1   force =     0.00000361    0.00000361    0.00000361
     atom    2 type  1   force =     0.00000361    0.00000361   -0.00000361
     atom    3 type  1   force =     0.00000361   -0.00000361    0.00000361
     atom    4 type  1   force =     0.00000361   -0.00000361   -0.00000361
     atom    5 type  1   force =    -0.00000361    0.00000361    0.00000361
     atom    6 type  1   force =    -0.00000361    0.00000361   -0.00000361
     atom    7 type  1   force =    -0.00000361   -0.00000361    0.00000361
     atom    8 type  1   force =    -0.00000361   -0.00000361   -0.00000361
     atom    9 type  3   force =    -0.00000000    0.00000000    0.00000000
     atom   10 type  3   force =     0.00000000   -0.00000000   -0.00000000
     atom   11 type  3   force =    -0.00000000   -0.00000000    0.00000000
     atom   12 type  3   force =     0.00000000    0.00000000   -0.00000000
     atom   13 type  3   force =    -0.00000000    0.00000000    0.00000000
     atom   14 type  3   force =    -0.00000000   -0.00000000   -0.00000000
     atom   15 type  3   force =    -0.00000000   -0.00000000    0.00000000
     atom   16 type  3   force =    -0.00000000   -0.00000000   -0.00000000
     atom   17 type  2   force =     0.00000000   -0.00000000   -0.00000777
     atom   18 type  2   force =     0.00000000   -0.00000000    0.00000777
     atom   19 type  2   force =     0.00000000   -0.00000000    0.00002032
     atom   20 type  2   force =     0.00000000    0.00000000   -0.00002032
     atom   21 type  2   force =     0.00000000   -0.00000000    0.00002032
     atom   22 type  2   force =     0.00000000   -0.00000000   -0.00002032
     atom   23 type  2   force =    -0.00000000   -0.00000000   -0.00001319
     atom   24 type  2   force =    -0.00000000   -0.00000000    0.00001319
     atom   25 type  2   force =    -0.00000000   -0.00000777   -0.00000000
     atom   26 type  2   force =     0.00000000    0.00002032    0.00000000
     atom   27 type  2   force =     0.00000000    0.00000777    0.00000000
     atom   28 type  2   force =    -0.00000000   -0.00002032    0.00000000
     atom   29 type  2   force =     0.00000000    0.00002032   -0.00000000
     atom   30 type  2   force =    -0.00000000   -0.00001319    0.00000000
     atom   31 type  2   force =     0.00000000   -0.00002032    0.00000000
     atom   32 type  2   force =    -0.00000000    0.00001319    0.00000000
     atom   33 type  2   force =    -0.00000777   -0.00000000    0.00000000
     atom   34 type  2   force =     0.00002032   -0.00000000    0.00000000
     atom   35 type  2   force =     0.00002032   -0.00000000   -0.00000000
     atom   36 type  2   force =    -0.00001319    0.00000000    0.00000000
     atom   37 type  2   force =     0.00000777   -0.00000000    0.00000000
     atom   38 type  2   force =    -0.00002032   -0.00000000    0.00000000
     atom   39 type  2   force =    -0.00002032   -0.00000000   -0.00000000
     atom   40 type  2   force =     0.00001319    0.00000000    0.00000000

     Total force =     0.000026     Total SCF correction =     0.000082
     SCF correction compared to forces is large: reduce conv_thr to get better values


     Computing stress (Cartesian axis) and pressure

          total   stress  (Ry/bohr**3)                   (kbar)     P=        0.31
   0.00000208   0.00000000   0.00000000            0.31        0.00        0.00
   0.00000000   0.00000208   0.00000000            0.00        0.31        0.00
   0.00000000   0.00000000   0.00000208            0.00        0.00        0.31

     kinetic stress (kbar)   3449.97      0.00      0.00
                                0.00   3449.97      0.00
                                0.00      0.00   3449.97

     local   stress (kbar)   -371.53     -0.00      0.00
                               -0.00   -371.53     -0.00
                                0.00     -0.00   -371.53

     nonloc. stress (kbar)    896.49      0.00      0.00
                                0.00    896.49      0.00
                                0.00      0.00    896.49

     hartree stress (kbar)   1920.44      0.00     -0.00
                                0.00   1920.44      0.00
                               -0.00      0.00   1920.44

     exc-cor stress (kbar)  12007.48      0.00      0.00
                                0.00  12007.48     -0.00
                                0.00     -0.00  12007.48

     corecor stress (kbar) -13606.52      0.00      0.00
                               -0.00 -13606.52     -0.00
                                0.00      0.00 -13606.52

     ewald   stress (kbar)  -4296.03      0.00     -0.00
                                0.00  -4296.03     -0.00
                               -0.00     -0.00  -4296.03

     hubbard stress (kbar)      0.00      0.00      0.00
                                0.00      0.00      0.00
                                0.00      0.00      0.00

     DFT-D   stress (kbar)      0.00      0.00      0.00
                                0.00      0.00      0.00
                                0.00      0.00      0.00

     XDM     stress (kbar)      0.00      0.00      0.00
                                0.00      0.00      0.00
                                0.00      0.00      0.00

     dft-nl  stress (kbar)      0.00      0.00      0.00
                                0.00      0.00      0.00
                                0.00      0.00      0.00

     TS-vdW  stress (kbar)      0.00      0.00      0.00
                                0.00      0.00      0.00
                                0.00      0.00      0.00



     Writing output data file ../../out/aiida.save/

     init_run     :    218.27s CPU    220.16s WALL (       1 calls)
     electrons    :   7358.97s CPU   7399.65s WALL (       1 calls)
     forces       :    114.52s CPU    115.51s WALL (       1 calls)
     stress       :    165.79s CPU    168.43s WALL (       1 calls)

     Called by init_run:
     wfcinit      :    205.89s CPU    206.84s WALL (       1 calls)
     wfcinit:atom :      0.29s CPU      0.39s WALL (       4 calls)
     wfcinit:wfcr :    203.84s CPU    204.53s WALL (       4 calls)
     potinit      :      2.50s CPU      2.62s WALL (       1 calls)
     hinit0       :      0.90s CPU      0.93s WALL (       1 calls)

     Called by electrons:
     c_bands      :   6548.19s CPU   6568.03s WALL (      12 calls)
     sum_band     :    695.60s CPU    707.68s WALL (      12 calls)
     v_of_rho     :      8.86s CPU      9.47s WALL (      12 calls)
     v_h          :      0.81s CPU      0.83s WALL (      12 calls)
     v_xc         :      9.28s CPU      9.95s WALL (      14 calls)
     newd         :     97.32s CPU    106.18s WALL (      12 calls)
     PAW_pot      :     16.16s CPU     16.17s WALL (      12 calls)
     mix_rho      :      2.27s CPU      2.35s WALL (      12 calls)

     Called by c_bands:
     init_us_2    :      8.89s CPU      8.93s WALL (     108 calls)
     cegterg      :   6515.59s CPU   6535.39s WALL (      49 calls)

     Called by sum_band:
     sum_band:wei :      0.01s CPU      0.01s WALL (      12 calls)
     sum_band:loo :    529.51s CPU    531.21s WALL (      12 calls)
     sum_band:buf :      1.79s CPU      1.79s WALL (      48 calls)
     sum_band:ini :      3.96s CPU      3.97s WALL (      48 calls)
     sum_band:cal :    356.69s CPU    356.82s WALL (      48 calls)
     sum_band:bec :      0.14s CPU      0.14s WALL (      48 calls)
     addusdens    :    164.29s CPU    174.58s WALL (      12 calls)
     addusd:skk   :      0.97s CPU      1.68s WALL (      36 calls)
     addusd:dgemm :    100.69s CPU    108.58s WALL (      36 calls)
     addusd:qvan2 :     60.82s CPU     60.83s WALL (      36 calls)

     Called by *egterg:
     cdiaghg      :     61.19s CPU     61.20s WALL (     349 calls)
     cegterg:over :    752.56s CPU    752.81s WALL (     304 calls)
     cegterg:upda :    468.80s CPU    470.24s WALL (     304 calls)
     cegterg:last :   1140.11s CPU   1140.35s WALL (     107 calls)
     h_psi        :   2912.66s CPU   2925.85s WALL (     357 calls)
     s_psi        :   1032.23s CPU   1032.73s WALL (     357 calls)
     g_psi        :      6.78s CPU      6.79s WALL (     304 calls)

     Called by h_psi:
     h_psi:calbec :   1018.68s CPU   1019.10s WALL (     357 calls)
     vloc_psi     :    858.71s CPU    868.77s WALL (     357 calls)
     add_vuspsi   :   1031.92s CPU   1032.54s WALL (     357 calls)

     General routines
     calbec       :   1495.25s CPU   1495.82s WALL (     425 calls)
     fft          :      8.54s CPU      8.98s WALL (     180 calls)
     ffts         :      0.71s CPU      0.74s WALL (      24 calls)
     fftw         :    814.78s CPU    823.64s WALL (   67818 calls)
     interpolate  :      1.14s CPU      1.18s WALL (      12 calls)

     Parallel routines
     fft_scatt_xy :    199.15s CPU    200.96s WALL (   68022 calls)
     fft_scatt_yz :     95.07s CPU     99.17s WALL (   68022 calls)

     PAW routines
     PAW_pot      :     16.16s CPU     16.17s WALL (      12 calls)
     PAW_symme    :      0.05s CPU      0.05s WALL (      24 calls)

     PWSCF        :      2h10m CPU      2h11m WALL


   This run was terminated on:  18: 1:45   2Apr2024            

=------------------------------------------------------------------------------=
   JOB DONE.
=------------------------------------------------------------------------------=
