
     Program PWSCF v.6.4.1 starts on 17Feb2021 at  0:24:10 

     This program is part of the open-source Quantum ESPRESSO suite
     for quantum simulation of materials; please cite
         "P. Giannozzi et al., J. Phys.:Condens. Matter 21 395502 (2009);
         "P. Giannozzi et al., J. Phys.:Condens. Matter 29 465901 (2017);
          URL http://www.quantum-espresso.org", 
     in publications or presentations arising from this work. More details at
     http://www.quantum-espresso.org/quote

     Parallel version (MPI & OpenMP), running on      36 processor cores
     Number of MPI processes:                 1
     Threads/MPI process:                    36

     MPI processes distributed on     1 nodes
     Reading input from WO.relax.in
Warning: card  &CELL ignored
Warning: card     CELL_DYNAMICS='BFGS' ignored
Warning: card     CELL_DOFREE='VOLUME' ignored
Warning: card  / ignored

     Current dimensions of program PWSCF are:
     Max number of different atomic species (ntypx) = 10
     Max number of k-points (npk) =  40000
     Max angular momentum in pseudopotentials (lmaxx) =  3

     Subspace diagonalization in iterative solution of the eigenvalue problem:
     a serial algorithm will be used


     G-vector sticks info
     --------------------
     sticks:   dense  smooth     PW     G-vecs:    dense   smooth      PW
     Sum       27709   11093   2885              3474079   878547  117161



     bravais-lattice index     =            1
     lattice parameter (alat)  =      24.1000  a.u.
     unit-cell volume          =   13997.5210 (a.u.)^3
     number of atoms/cell      =          129
     number of atomic types    =            2
     number of electrons       =      1798.00
     number of Kohn-Sham states=         1079
     kinetic-energy cutoff     =      60.0000  Ry
     charge density cutoff     =     600.0000  Ry
     convergence threshold     =      1.0E-03
     mixing beta               =       0.2000
     number of iterations used =            8  plain     mixing
     Exchange-correlation      = PBE ( 1  4  3  4 0 0)
     nstep                     =           50


     celldm(1)=  24.100000  celldm(2)=   0.000000  celldm(3)=   0.000000
     celldm(4)=   0.000000  celldm(5)=   0.000000  celldm(6)=   0.000000

     crystal axes: (cart. coord. in units of alat)
               a(1) = (   1.000000   0.000000   0.000000 )  
               a(2) = (   0.000000   1.000000   0.000000 )  
               a(3) = (   0.000000   0.000000   1.000000 )  

     reciprocal axes: (cart. coord. in units 2 pi/alat)
               b(1) = (  1.000000  0.000000  0.000000 )  
               b(2) = (  0.000000  1.000000  0.000000 )  
               b(3) = (  0.000000  0.000000  1.000000 )  


     PseudoPot. # 1 for W  read from file:
     .\W.pbe-spn-rrkjus_psl.1.0.0.UPF
     MD5 check sum: 4683a610f728ad8b9b870e1b84ab3950
     Pseudo is Ultrasoft + core correction, Zval = 14.0
     Generated using "atomic" code by A. Dal Corso v.6.2.2
     Using radial grid of 1273 points,  6 beta functions with: 
                l(1) =   0
                l(2) =   0
                l(3) =   1
                l(4) =   1
                l(5) =   2
                l(6) =   2
     Q(r) pseudized with 0 coefficients 


     PseudoPot. # 2 for O  read from file:
     .\O.pbe-n-rrkjus_psl.1.0.0.UPF
     MD5 check sum: 91400c9766925bcf19f520983a725ff0
     Pseudo is Ultrasoft + core correction, Zval =  6.0
     Generated using "atomic" code by A. Dal Corso v.6.3MaX
     Using radial grid of 1095 points,  4 beta functions with: 
                l(1) =   0
                l(2) =   0
                l(3) =   1
                l(4) =   1
     Q(r) pseudized with 0 coefficients 


     atomic species   valence    mass     pseudopotential
        W             14.00   183.84000     W ( 1.00)
        O              6.00    15.99900     O ( 1.00)

      4 Sym. Ops. (no inversion) found


                                    s                        frac. trans.

      isym =  1     identity                                     

 cryst.   s( 1) = (     1          0          0      )
                  (     0          1          0      )
                  (     0          0          1      )

 cart.    s( 1) = (  1.0000000  0.0000000  0.0000000 )
                  (  0.0000000  1.0000000  0.0000000 )
                  (  0.0000000  0.0000000  1.0000000 )


      isym =  2     180 deg rotation - cart. axis [0,1,1]        

 cryst.   s( 2) = (    -1          0          0      )
                  (     0          0          1      )
                  (     0          1          0      )

 cart.    s( 2) = ( -1.0000000  0.0000000  0.0000000 )
                  (  0.0000000  0.0000000  1.0000000 )
                  (  0.0000000  1.0000000  0.0000000 )


      isym =  3     inv. 180 deg rotation - cart. axis [1,0,0]   

 cryst.   s( 3) = (    -1          0          0      )
                  (     0          1          0      )
                  (     0          0          1      )

 cart.    s( 3) = ( -1.0000000  0.0000000  0.0000000 )
                  (  0.0000000  1.0000000  0.0000000 )
                  (  0.0000000  0.0000000  1.0000000 )


      isym =  4     inv. 180 deg rotation - cart. axis [0,1,-1]  

 cryst.   s( 4) = (     1          0          0      )
                  (     0          0          1      )
                  (     0          1          0      )

 cart.    s( 4) = (  1.0000000  0.0000000  0.0000000 )
                  (  0.0000000  0.0000000  1.0000000 )
                  (  0.0000000  1.0000000  0.0000000 )


     point group C_2v (mm2) 
     there are  4 classes
     the character table:

       E     C2    s_v   s_v' 
A_1    1.00  1.00  1.00  1.00
A_2    1.00  1.00 -1.00 -1.00
B_1    1.00 -1.00  1.00 -1.00
B_2    1.00 -1.00 -1.00  1.00

     the symmetry operations in each class and the name of the first element:

     E        1
          identity                                               
     C2       2
          180 deg rotation - cart. axis [0,1,1]                  
     s_v      4
          inv. 180 deg rotation - cart. axis [0,1,-1]            
     s_v'     3
          inv. 180 deg rotation - cart. axis [1,0,0]             

   Cartesian axes

     site n.     atom                  positions (alat units)
         1           W   tau(   1) = (   0.0000000   0.0000000   0.0000000  )
         2           W   tau(   2) = (   0.1249984   0.1249984   0.1249984  )
         3           W   tau(   3) = (   0.0000000   0.0000000   0.2500007  )
         4           W   tau(   4) = (   0.1249948   0.1249948   0.3749975  )
         5           W   tau(   5) = (   0.0000000   0.0000000   0.4999980  )
         6           W   tau(   6) = (   0.1249948   0.1249948   0.6249995  )
         7           W   tau(   7) = (   0.0000000   0.0000000   0.7499963  )
         8           W   tau(   8) = (   0.1249984   0.1249984   0.8749986  )
         9           W   tau(   9) = (   0.0000000   0.2500007   0.0000000  )
        10           W   tau(  10) = (   0.1249948   0.3749975   0.1249948  )
        11           W   tau(  11) = (   0.0000000   0.2499972   0.2499972  )
        12           W   tau(  12) = (   0.1249974   0.3750059   0.3750059  )
        13           W   tau(  13) = (   0.0000000   0.2500023   0.4999980  )
        14           W   tau(  14) = (   0.1249974   0.3750059   0.6249911  )
        15           W   tau(  15) = (   0.0000000   0.2499972   0.7499998  )
        16           W   tau(  16) = (   0.1249948   0.3749975   0.8750022  )
        17           W   tau(  17) = (   0.0000000   0.4999980   0.0000000  )
        18           W   tau(  18) = (   0.1249948   0.6249995   0.1249948  )
        19           W   tau(  19) = (   0.0000000   0.4999980   0.2500023  )
        20           W   tau(  20) = (   0.1249974   0.6249911   0.3750059  )
        21           W   tau(  21) = (   0.0000000   0.4999980   0.4999980  )
        22           W   tau(  22) = (   0.1249974   0.6249911   0.6249911  )
        23           W   tau(  23) = (   0.0000000   0.4999980   0.7499947  )
        24           W   tau(  24) = (   0.1249948   0.6249995   0.8750022  )
        25           W   tau(  25) = (   0.0000000   0.7499963   0.0000000  )
        26           W   tau(  26) = (   0.1249984   0.8749986   0.1249984  )
        27           W   tau(  27) = (   0.0000000   0.7499998   0.2499972  )
        28           W   tau(  28) = (   0.1249948   0.8750022   0.3749975  )
        29           W   tau(  29) = (   0.0000000   0.7499947   0.4999980  )
        30           W   tau(  30) = (   0.1249948   0.8750022   0.6249995  )
        31           W   tau(  31) = (   0.0000000   0.7499998   0.7499998  )
        32           W   tau(  32) = (   0.1249984   0.8749986   0.8749986  )
        33           W   tau(  33) = (   0.2500007   0.0000000   0.0000000  )
        34           W   tau(  34) = (   0.3749975   0.1249948   0.1249948  )
        35           W   tau(  35) = (   0.2499972   0.0000000   0.2499972  )
        36           W   tau(  36) = (   0.3750059   0.1249974   0.3750059  )
        37           W   tau(  37) = (   0.2500023   0.0000000   0.4999980  )
        38           W   tau(  38) = (   0.3750059   0.1249974   0.6249911  )
        39           W   tau(  39) = (   0.2499972   0.0000000   0.7499998  )
        40           W   tau(  40) = (   0.3749975   0.1249948   0.8750022  )
        41           W   tau(  41) = (   0.2499972   0.2499972   0.0000000  )
        42           W   tau(  42) = (   0.3750059   0.3750059   0.1249974  )
        43           W   tau(  43) = (   0.2500017   0.2500017   0.2500017  )
        44           W   tau(  44) = (   0.3750054   0.3750054   0.3750054  )
        45           W   tau(  45) = (   0.2500031   0.2500031   0.4999980  )
        46           W   tau(  46) = (   0.3750054   0.3750054   0.6249916  )
        47           W   tau(  47) = (   0.2500017   0.2500017   0.7499953  )
        48           W   tau(  48) = (   0.3750059   0.3750059   0.8749996  )
        49           W   tau(  49) = (   0.2500023   0.4999980   0.0000000  )
        50           W   tau(  50) = (   0.3750059   0.6249911   0.1249974  )
        51           W   tau(  51) = (   0.2500031   0.4999980   0.2500031  )
        52           W   tau(  52) = (   0.3750054   0.6249916   0.3750054  )
        53           W   tau(  53) = (   0.2500152   0.4999980   0.4999980  )
        54           W   tau(  54) = (   0.3750054   0.6249916   0.6249916  )
        55           W   tau(  55) = (   0.2500031   0.4999980   0.7499939  )
        56           W   tau(  56) = (   0.3750059   0.6249911   0.8749996  )
        57           W   tau(  57) = (   0.2499972   0.7499998   0.0000000  )
        58           W   tau(  58) = (   0.3749975   0.8750022   0.1249948  )
        59           W   tau(  59) = (   0.2500017   0.7499953   0.2500017  )
        60           W   tau(  60) = (   0.3750059   0.8749996   0.3750059  )
        61           W   tau(  61) = (   0.2500031   0.7499939   0.4999980  )
        62           W   tau(  62) = (   0.3750059   0.8749996   0.6249911  )
        63           W   tau(  63) = (   0.2500017   0.7499953   0.7499953  )
        64           W   tau(  64) = (   0.3749975   0.8750022   0.8750022  )
        65           W   tau(  65) = (   0.4999980   0.0000000   0.0000000  )
        66           W   tau(  66) = (   0.6249995   0.1249948   0.1249948  )
        67           W   tau(  67) = (   0.4999980   0.0000000   0.2500023  )
        68           W   tau(  68) = (   0.6249911   0.1249974   0.3750059  )
        69           W   tau(  69) = (   0.4999980   0.0000000   0.4999980  )
        70           W   tau(  70) = (   0.6249911   0.1249974   0.6249911  )
        71           W   tau(  71) = (   0.4999980   0.0000000   0.7499947  )
        72           W   tau(  72) = (   0.6249995   0.1249948   0.8750022  )
        73           W   tau(  73) = (   0.4999980   0.2500023   0.0000000  )
        74           W   tau(  74) = (   0.6249911   0.3750059   0.1249974  )
        75           W   tau(  75) = (   0.4999980   0.2500031   0.2500031  )
        76           W   tau(  76) = (   0.6249916   0.3750054   0.3750054  )
        77           W   tau(  77) = (   0.4999980   0.2500152   0.4999980  )
        78           W   tau(  78) = (   0.6249916   0.3750054   0.6249916  )
        79           W   tau(  79) = (   0.4999980   0.2500031   0.7499939  )
        80           O   tau(  80) = (   0.4999980   0.3750036   0.3750036  )
        81           W   tau(  81) = (   0.6249911   0.3750059   0.8749996  )
        82           W   tau(  82) = (   0.4999980   0.4999980   0.0000000  )
        83           W   tau(  83) = (   0.6249911   0.6249911   0.1249974  )
        84           W   tau(  84) = (   0.4999980   0.4999980   0.2500152  )
        85           W   tau(  85) = (   0.6249916   0.6249916   0.3750054  )
        86           W   tau(  86) = (   0.4999980   0.4999980   0.4999980  )
        87           W   tau(  87) = (   0.6249916   0.6249916   0.6249916  )
        88           W   tau(  88) = (   0.4999980   0.4999980   0.7499818  )
        89           W   tau(  89) = (   0.6249911   0.6249911   0.8749996  )
        90           W   tau(  90) = (   0.4999980   0.7499947   0.0000000  )
        91           W   tau(  91) = (   0.6249995   0.8750022   0.1249948  )
        92           W   tau(  92) = (   0.4999980   0.7499939   0.2500031  )
        93           W   tau(  93) = (   0.6249911   0.8749996   0.3750059  )
        94           W   tau(  94) = (   0.4999980   0.7499818   0.4999980  )
        95           W   tau(  95) = (   0.6249911   0.8749996   0.6249911  )
        96           W   tau(  96) = (   0.4999980   0.7499939   0.7499939  )
        97           W   tau(  97) = (   0.6249995   0.8750022   0.8750022  )
        98           W   tau(  98) = (   0.7499963   0.0000000   0.0000000  )
        99           W   tau(  99) = (   0.8749986   0.1249984   0.1249984  )
       100           W   tau( 100) = (   0.7499998   0.0000000   0.2499972  )
       101           W   tau( 101) = (   0.8750022   0.1249948   0.3749975  )
       102           W   tau( 102) = (   0.7499947   0.0000000   0.4999980  )
       103           W   tau( 103) = (   0.8750022   0.1249948   0.6249995  )
       104           W   tau( 104) = (   0.7499998   0.0000000   0.7499998  )
       105           W   tau( 105) = (   0.8749986   0.1249984   0.8749986  )
       106           W   tau( 106) = (   0.7499998   0.2499972   0.0000000  )
       107           W   tau( 107) = (   0.8750022   0.3749975   0.1249948  )
       108           W   tau( 108) = (   0.7499953   0.2500017   0.2500017  )
       109           W   tau( 109) = (   0.8749996   0.3750059   0.3750059  )
       110           W   tau( 110) = (   0.7499939   0.2500031   0.4999980  )
       111           W   tau( 111) = (   0.8749996   0.3750059   0.6249911  )
       112           W   tau( 112) = (   0.7499953   0.2500017   0.7499953  )
       113           W   tau( 113) = (   0.8750022   0.3749975   0.8750022  )
       114           W   tau( 114) = (   0.7499947   0.4999980   0.0000000  )
       115           W   tau( 115) = (   0.8750022   0.6249995   0.1249948  )
       116           W   tau( 116) = (   0.7499939   0.4999980   0.2500031  )
       117           W   tau( 117) = (   0.8749996   0.6249911   0.3750059  )
       118           W   tau( 118) = (   0.7499818   0.4999980   0.4999980  )
       119           W   tau( 119) = (   0.8749996   0.6249911   0.6249911  )
       120           W   tau( 120) = (   0.7499939   0.4999980   0.7499939  )
       121           W   tau( 121) = (   0.8750022   0.6249995   0.8750022  )
       122           W   tau( 122) = (   0.7499998   0.7499998   0.0000000  )
       123           W   tau( 123) = (   0.8749986   0.8749986   0.1249984  )
       124           W   tau( 124) = (   0.7499953   0.7499953   0.2500017  )
       125           W   tau( 125) = (   0.8750022   0.8750022   0.3749975  )
       126           W   tau( 126) = (   0.7499939   0.7499939   0.4999980  )
       127           W   tau( 127) = (   0.8750022   0.8750022   0.6249995  )
       128           W   tau( 128) = (   0.7499953   0.7499953   0.7499953  )
       129           W   tau( 129) = (   0.8749986   0.8749986   0.8749986  )

   Crystallographic axes

     site n.     atom                  positions (cryst. coord.)
         1           W   tau(   1) = (  0.0000000  0.0000000  0.0000000  )
         2           W   tau(   2) = (  0.1249984  0.1249984  0.1249984  )
         3           W   tau(   3) = (  0.0000000  0.0000000  0.2500007  )
         4           W   tau(   4) = (  0.1249948  0.1249948  0.3749975  )
         5           W   tau(   5) = (  0.0000000  0.0000000  0.4999980  )
         6           W   tau(   6) = (  0.1249948  0.1249948  0.6249995  )
         7           W   tau(   7) = (  0.0000000  0.0000000  0.7499963  )
         8           W   tau(   8) = (  0.1249984  0.1249984  0.8749986  )
         9           W   tau(   9) = (  0.0000000  0.2500007  0.0000000  )
        10           W   tau(  10) = (  0.1249948  0.3749975  0.1249948  )
        11           W   tau(  11) = (  0.0000000  0.2499972  0.2499972  )
        12           W   tau(  12) = (  0.1249974  0.3750059  0.3750059  )
        13           W   tau(  13) = (  0.0000000  0.2500023  0.4999980  )
        14           W   tau(  14) = (  0.1249974  0.3750059  0.6249911  )
        15           W   tau(  15) = (  0.0000000  0.2499972  0.7499998  )
        16           W   tau(  16) = (  0.1249948  0.3749975  0.8750022  )
        17           W   tau(  17) = (  0.0000000  0.4999980  0.0000000  )
        18           W   tau(  18) = (  0.1249948  0.6249995  0.1249948  )
        19           W   tau(  19) = (  0.0000000  0.4999980  0.2500023  )
        20           W   tau(  20) = (  0.1249974  0.6249911  0.3750059  )
        21           W   tau(  21) = (  0.0000000  0.4999980  0.4999980  )
        22           W   tau(  22) = (  0.1249974  0.6249911  0.6249911  )
        23           W   tau(  23) = (  0.0000000  0.4999980  0.7499947  )
        24           W   tau(  24) = (  0.1249948  0.6249995  0.8750022  )
        25           W   tau(  25) = (  0.0000000  0.7499963  0.0000000  )
        26           W   tau(  26) = (  0.1249984  0.8749986  0.1249984  )
        27           W   tau(  27) = (  0.0000000  0.7499998  0.2499972  )
        28           W   tau(  28) = (  0.1249948  0.8750022  0.3749975  )
        29           W   tau(  29) = (  0.0000000  0.7499947  0.4999980  )
        30           W   tau(  30) = (  0.1249948  0.8750022  0.6249995  )
        31           W   tau(  31) = (  0.0000000  0.7499998  0.7499998  )
        32           W   tau(  32) = (  0.1249984  0.8749986  0.8749986  )
        33           W   tau(  33) = (  0.2500007  0.0000000  0.0000000  )
        34           W   tau(  34) = (  0.3749975  0.1249948  0.1249948  )
        35           W   tau(  35) = (  0.2499972  0.0000000  0.2499972  )
        36           W   tau(  36) = (  0.3750059  0.1249974  0.3750059  )
        37           W   tau(  37) = (  0.2500023  0.0000000  0.4999980  )
        38           W   tau(  38) = (  0.3750059  0.1249974  0.6249911  )
        39           W   tau(  39) = (  0.2499972  0.0000000  0.7499998  )
        40           W   tau(  40) = (  0.3749975  0.1249948  0.8750022  )
        41           W   tau(  41) = (  0.2499972  0.2499972  0.0000000  )
        42           W   tau(  42) = (  0.3750059  0.3750059  0.1249974  )
        43           W   tau(  43) = (  0.2500017  0.2500017  0.2500017  )
        44           W   tau(  44) = (  0.3750054  0.3750054  0.3750054  )
        45           W   tau(  45) = (  0.2500031  0.2500031  0.4999980  )
        46           W   tau(  46) = (  0.3750054  0.3750054  0.6249916  )
        47           W   tau(  47) = (  0.2500017  0.2500017  0.7499953  )
        48           W   tau(  48) = (  0.3750059  0.3750059  0.8749996  )
        49           W   tau(  49) = (  0.2500023  0.4999980  0.0000000  )
        50           W   tau(  50) = (  0.3750059  0.6249911  0.1249974  )
        51           W   tau(  51) = (  0.2500031  0.4999980  0.2500031  )
        52           W   tau(  52) = (  0.3750054  0.6249916  0.3750054  )
        53           W   tau(  53) = (  0.2500152  0.4999980  0.4999980  )
        54           W   tau(  54) = (  0.3750054  0.6249916  0.6249916  )
        55           W   tau(  55) = (  0.2500031  0.4999980  0.7499939  )
        56           W   tau(  56) = (  0.3750059  0.6249911  0.8749996  )
        57           W   tau(  57) = (  0.2499972  0.7499998  0.0000000  )
        58           W   tau(  58) = (  0.3749975  0.8750022  0.1249948  )
        59           W   tau(  59) = (  0.2500017  0.7499953  0.2500017  )
        60           W   tau(  60) = (  0.3750059  0.8749996  0.3750059  )
        61           W   tau(  61) = (  0.2500031  0.7499939  0.4999980  )
        62           W   tau(  62) = (  0.3750059  0.8749996  0.6249911  )
        63           W   tau(  63) = (  0.2500017  0.7499953  0.7499953  )
        64           W   tau(  64) = (  0.3749975  0.8750022  0.8750022  )
        65           W   tau(  65) = (  0.4999980  0.0000000  0.0000000  )
        66           W   tau(  66) = (  0.6249995  0.1249948  0.1249948  )
        67           W   tau(  67) = (  0.4999980  0.0000000  0.2500023  )
        68           W   tau(  68) = (  0.6249911  0.1249974  0.3750059  )
        69           W   tau(  69) = (  0.4999980  0.0000000  0.4999980  )
        70           W   tau(  70) = (  0.6249911  0.1249974  0.6249911  )
        71           W   tau(  71) = (  0.4999980  0.0000000  0.7499947  )
        72           W   tau(  72) = (  0.6249995  0.1249948  0.8750022  )
        73           W   tau(  73) = (  0.4999980  0.2500023  0.0000000  )
        74           W   tau(  74) = (  0.6249911  0.3750059  0.1249974  )
        75           W   tau(  75) = (  0.4999980  0.2500031  0.2500031  )
        76           W   tau(  76) = (  0.6249916  0.3750054  0.3750054  )
        77           W   tau(  77) = (  0.4999980  0.2500152  0.4999980  )
        78           W   tau(  78) = (  0.6249916  0.3750054  0.6249916  )
        79           W   tau(  79) = (  0.4999980  0.2500031  0.7499939  )
        80           O   tau(  80) = (  0.4999980  0.3750036  0.3750036  )
        81           W   tau(  81) = (  0.6249911  0.3750059  0.8749996  )
        82           W   tau(  82) = (  0.4999980  0.4999980  0.0000000  )
        83           W   tau(  83) = (  0.6249911  0.6249911  0.1249974  )
        84           W   tau(  84) = (  0.4999980  0.4999980  0.2500152  )
        85           W   tau(  85) = (  0.6249916  0.6249916  0.3750054  )
        86           W   tau(  86) = (  0.4999980  0.4999980  0.4999980  )
        87           W   tau(  87) = (  0.6249916  0.6249916  0.6249916  )
        88           W   tau(  88) = (  0.4999980  0.4999980  0.7499818  )
        89           W   tau(  89) = (  0.6249911  0.6249911  0.8749996  )
        90           W   tau(  90) = (  0.4999980  0.7499947  0.0000000  )
        91           W   tau(  91) = (  0.6249995  0.8750022  0.1249948  )
        92           W   tau(  92) = (  0.4999980  0.7499939  0.2500031  )
        93           W   tau(  93) = (  0.6249911  0.8749996  0.3750059  )
        94           W   tau(  94) = (  0.4999980  0.7499818  0.4999980  )
        95           W   tau(  95) = (  0.6249911  0.8749996  0.6249911  )
        96           W   tau(  96) = (  0.4999980  0.7499939  0.7499939  )
        97           W   tau(  97) = (  0.6249995  0.8750022  0.8750022  )
        98           W   tau(  98) = (  0.7499963  0.0000000  0.0000000  )
        99           W   tau(  99) = (  0.8749986  0.1249984  0.1249984  )
       100           W   tau( 100) = (  0.7499998  0.0000000  0.2499972  )
       101           W   tau( 101) = (  0.8750022  0.1249948  0.3749975  )
       102           W   tau( 102) = (  0.7499947  0.0000000  0.4999980  )
       103           W   tau( 103) = (  0.8750022  0.1249948  0.6249995  )
       104           W   tau( 104) = (  0.7499998  0.0000000  0.7499998  )
       105           W   tau( 105) = (  0.8749986  0.1249984  0.8749986  )
       106           W   tau( 106) = (  0.7499998  0.2499972  0.0000000  )
       107           W   tau( 107) = (  0.8750022  0.3749975  0.1249948  )
       108           W   tau( 108) = (  0.7499953  0.2500017  0.2500017  )
       109           W   tau( 109) = (  0.8749996  0.3750059  0.3750059  )
       110           W   tau( 110) = (  0.7499939  0.2500031  0.4999980  )
       111           W   tau( 111) = (  0.8749996  0.3750059  0.6249911  )
       112           W   tau( 112) = (  0.7499953  0.2500017  0.7499953  )
       113           W   tau( 113) = (  0.8750022  0.3749975  0.8750022  )
       114           W   tau( 114) = (  0.7499947  0.4999980  0.0000000  )
       115           W   tau( 115) = (  0.8750022  0.6249995  0.1249948  )
       116           W   tau( 116) = (  0.7499939  0.4999980  0.2500031  )
       117           W   tau( 117) = (  0.8749996  0.6249911  0.3750059  )
       118           W   tau( 118) = (  0.7499818  0.4999980  0.4999980  )
       119           W   tau( 119) = (  0.8749996  0.6249911  0.6249911  )
       120           W   tau( 120) = (  0.7499939  0.4999980  0.7499939  )
       121           W   tau( 121) = (  0.8750022  0.6249995  0.8750022  )
       122           W   tau( 122) = (  0.7499998  0.7499998  0.0000000  )
       123           W   tau( 123) = (  0.8749986  0.8749986  0.1249984  )
       124           W   tau( 124) = (  0.7499953  0.7499953  0.2500017  )
       125           W   tau( 125) = (  0.8750022  0.8750022  0.3749975  )
       126           W   tau( 126) = (  0.7499939  0.7499939  0.4999980  )
       127           W   tau( 127) = (  0.8750022  0.8750022  0.6249995  )
       128           W   tau( 128) = (  0.7499953  0.7499953  0.7499953  )
       129           W   tau( 129) = (  0.8749986  0.8749986  0.8749986  )

     number of k points=    12  Marzari-Vanderbilt smearing, width (Ry)=  0.0200
                       cart. coord. in units 2pi/alat
        k(    1) = (   0.1250000   0.1250000   0.1250000), wk =   0.1250000
        k(    2) = (   0.1250000   0.1250000   0.3750000), wk =   0.2500000
        k(    3) = (   0.1250000   0.3750000   0.3750000), wk =   0.1250000
        k(    4) = (   0.3750000   0.3750000   0.3750000), wk =   0.1250000
        k(    5) = (   0.1250000   0.1250000  -0.1250000), wk =   0.1250000
        k(    6) = (   0.1250000   0.1250000  -0.3750000), wk =   0.2500000
        k(    7) = (   0.3750000  -0.1250000   0.1250000), wk =   0.1250000
        k(    8) = (  -0.3750000  -0.1250000  -0.1250000), wk =   0.1250000
        k(    9) = (   0.3750000   0.1250000  -0.3750000), wk =   0.2500000
        k(   10) = (  -0.3750000  -0.1250000  -0.3750000), wk =   0.2500000
        k(   11) = (  -0.1250000  -0.3750000   0.3750000), wk =   0.1250000
        k(   12) = (   0.3750000   0.3750000  -0.3750000), wk =   0.1250000

                       cryst. coord.
        k(    1) = (   0.1250000   0.1250000   0.1250000), wk =   0.1250000
        k(    2) = (   0.1250000   0.1250000   0.3750000), wk =   0.2500000
        k(    3) = (   0.1250000   0.3750000   0.3750000), wk =   0.1250000
        k(    4) = (   0.3750000   0.3750000   0.3750000), wk =   0.1250000
        k(    5) = (   0.1250000   0.1250000  -0.1250000), wk =   0.1250000
        k(    6) = (   0.1250000   0.1250000  -0.3750000), wk =   0.2500000
        k(    7) = (   0.3750000  -0.1250000   0.1250000), wk =   0.1250000
        k(    8) = (  -0.3750000  -0.1250000  -0.1250000), wk =   0.1250000
        k(    9) = (   0.3750000   0.1250000  -0.3750000), wk =   0.2500000
        k(   10) = (  -0.3750000  -0.1250000  -0.3750000), wk =   0.2500000
        k(   11) = (  -0.1250000  -0.3750000   0.3750000), wk =   0.1250000
        k(   12) = (   0.3750000   0.3750000  -0.3750000), wk =   0.1250000

     Dense  grid:  3474079 G-vectors     FFT dimensions: ( 192, 192, 192)

     Smooth grid:   878547 G-vectors     FFT dimensions: ( 120, 120, 120)

     Dynamical RAM for                 wfc:    1808.71 MB

     Dynamical RAM for     wfc (w. buffer):   23513.25 MB

     Dynamical RAM for           str. fact:     106.02 MB

     Dynamical RAM for           local pot:       0.00 MB

     Dynamical RAM for          nlocal pot:    3875.57 MB

     Dynamical RAM for                qrad:      15.06 MB

     Dynamical RAM for          rho,v,vnew:     321.03 MB

     Dynamical RAM for               rhoin:     107.01 MB

     Dynamical RAM for            rho*nmix:     848.16 MB

     Dynamical RAM for           G-vectors:     205.49 MB

     Dynamical RAM for          h,s,v(r/c):     852.72 MB

     Dynamical RAM for          <psi|beta>:      38.07 MB

     Dynamical RAM for                 psi:    7234.85 MB

     Dynamical RAM for                hpsi:    7234.85 MB

     Dynamical RAM for                spsi:    7234.85 MB

     Dynamical RAM for      wfcinit/wfcrot:    5655.78 MB

     Dynamical RAM for           addusdens:   16645.21 MB

     Dynamical RAM for          addusforce:   30295.86 MB

     Estimated static dynamical RAM per process >      28.73 GB

     Estimated max dynamical RAM per process >      58.32 GB

     Initial potential from superposition of free atoms

     starting charge 1797.92870, renormalised to 1798.00000
     Starting wfcs are 1668 randomized atomic wfcs

     total cpu time spent up to now is      739.4 secs

     Self-consistent Calculation

     iteration #  1     ecut=    60.00 Ry     beta= 0.20
     Davidson diagonalization with overlap
     ethr =  1.00E-02,  avg # of iterations =  2.0

     Threshold (ethr) on eigenvalues was too large:
     Diagonalizing with lowered threshold

     Davidson diagonalization with overlap
     ethr =  2.81E-04,  avg # of iterations =  2.3

     total cpu time spent up to now is     2677.0 secs

     total energy              =  -20246.78302879 Ry
     Harris-Foulkes estimate   =  -20247.96979863 Ry
     estimated scf accuracy    <       5.52551702 Ry

     iteration #  2     ecut=    60.00 Ry     beta= 0.20
     Davidson diagonalization with overlap
     ethr =  3.07E-04,  avg # of iterations =  3.0

     negative rho (up, down):  1.041E-02 0.000E+00

     total cpu time spent up to now is     3605.4 secs

     total energy              =  -20246.08587159 Ry
     Harris-Foulkes estimate   =  -20246.93270223 Ry
     estimated scf accuracy    <       3.06829056 Ry

     iteration #  3     ecut=    60.00 Ry     beta= 0.20
     Davidson diagonalization with overlap
     ethr =  1.71E-04,  avg # of iterations =  9.8

     negative rho (up, down):  5.486E-02 0.000E+00

     total cpu time spent up to now is     5118.4 secs

     total energy              =  -20245.41641084 Ry
     Harris-Foulkes estimate   =  -20246.88318794 Ry
     estimated scf accuracy    <      14.90015818 Ry

     iteration #  4     ecut=    60.00 Ry     beta= 0.20
     Davidson diagonalization with overlap
     ethr =  1.71E-04,  avg # of iterations =  7.2

     negative rho (up, down):  1.131E-01 0.000E+00

     total cpu time spent up to now is     6522.9 secs

     total energy              =  -20246.07891931 Ry
     Harris-Foulkes estimate   =  -20246.21401163 Ry
     estimated scf accuracy    <       1.49450043 Ry

     iteration #  5     ecut=    60.00 Ry     beta= 0.20
     Davidson diagonalization with overlap
     ethr =  8.31E-05,  avg # of iterations =  2.6

     negative rho (up, down):  1.573E-01 0.000E+00

     total cpu time spent up to now is     7408.4 secs

     total energy              =  -20246.16517360 Ry
     Harris-Foulkes estimate   =  -20246.18564753 Ry
     estimated scf accuracy    <       0.45399257 Ry

     iteration #  6     ecut=    60.00 Ry     beta= 0.20
     Davidson diagonalization with overlap
     ethr =  2.52E-05,  avg # of iterations =  9.3

     negative rho (up, down):  1.947E-01 0.000E+00

     total cpu time spent up to now is     8715.6 secs

     total energy              =  -20246.19933435 Ry
     Harris-Foulkes estimate   =  -20246.19640623 Ry
     estimated scf accuracy    <       0.30526804 Ry

     iteration #  7     ecut=    60.00 Ry     beta= 0.20
     Davidson diagonalization with overlap
     c_bands:  1 eigenvalues not converged
     ethr =  1.70E-05,  avg # of iterations =  5.4

     negative rho (up, down):  1.900E-01 0.000E+00

     total cpu time spent up to now is     9744.6 secs

     total energy              =  -20246.17847063 Ry
     Harris-Foulkes estimate   =  -20246.20910676 Ry
     estimated scf accuracy    <       0.27494385 Ry

     iteration #  8     ecut=    60.00 Ry     beta= 0.20
     Davidson diagonalization with overlap
     ethr =  1.53E-05,  avg # of iterations =  2.0

     negative rho (up, down):  6.116E-02 0.000E+00

     total cpu time spent up to now is    10583.0 secs

     total energy              =  -20245.96441901 Ry
     Harris-Foulkes estimate   =  -20246.17902406 Ry
     estimated scf accuracy    <       0.27059659 Ry

     iteration #  9     ecut=    60.00 Ry     beta= 0.20
     Davidson diagonalization with overlap
     ethr =  1.50E-05,  avg # of iterations =  4.3

     negative rho (up, down):  1.308E-02 0.000E+00

     total cpu time spent up to now is    11683.3 secs

     total energy              =  -20245.92848902 Ry
     Harris-Foulkes estimate   =  -20246.00021740 Ry
     estimated scf accuracy    <       0.18351058 Ry

     iteration # 10     ecut=    60.00 Ry     beta= 0.20
     Davidson diagonalization with overlap
     ethr =  1.02E-05,  avg # of iterations =  5.6

     negative rho (up, down):  8.463E-04 0.000E+00

     total cpu time spent up to now is    12734.0 secs

     total energy              =  -20245.87428616 Ry
     Harris-Foulkes estimate   =  -20245.93764358 Ry
     estimated scf accuracy    <       0.11941802 Ry

     iteration # 11     ecut=    60.00 Ry     beta= 0.20
     Davidson diagonalization with overlap
     ethr =  6.64E-06,  avg # of iterations =  6.2

     negative rho (up, down):  5.967E-02 0.000E+00

     total cpu time spent up to now is    13837.0 secs

     total energy              =  -20245.77414505 Ry
     Harris-Foulkes estimate   =  -20245.88384312 Ry
     estimated scf accuracy    <       0.06612788 Ry

     iteration # 12     ecut=    60.00 Ry     beta= 0.20
     Davidson diagonalization with overlap
     c_bands:  1 eigenvalues not converged
     c_bands:  2 eigenvalues not converged
     c_bands:  2 eigenvalues not converged
     c_bands:  1 eigenvalues not converged
     c_bands:  1 eigenvalues not converged
     c_bands:  3 eigenvalues not converged
     ethr =  3.68E-06,  avg # of iterations = 15.9

     negative rho (up, down):  9.275E-02 0.000E+00

     total cpu time spent up to now is    15775.6 secs

     total energy              =  -20245.86345739 Ry
     Harris-Foulkes estimate   =  -20245.79162055 Ry
     estimated scf accuracy    <       0.01518093 Ry

     iteration # 13     ecut=    60.00 Ry     beta= 0.20
     Davidson diagonalization with overlap
     c_bands:  1 eigenvalues not converged
     c_bands:  1 eigenvalues not converged
     ethr =  8.44E-07,  avg # of iterations = 16.4

     negative rho (up, down):  1.183E-01 0.000E+00

     total cpu time spent up to now is    17667.1 secs

     total energy              =  -20245.92790928 Ry
     Harris-Foulkes estimate   =  -20245.86551311 Ry
     estimated scf accuracy    <       0.01447063 Ry

     iteration # 14     ecut=    60.00 Ry     beta= 0.20
     Davidson diagonalization with overlap
     ethr =  8.05E-07,  avg # of iterations =  3.5

     negative rho (up, down):  1.257E-01 0.000E+00

     total cpu time spent up to now is    18634.0 secs

     total energy              =  -20245.99125037 Ry
     Harris-Foulkes estimate   =  -20245.92968035 Ry
     estimated scf accuracy    <       0.01283376 Ry

     iteration # 15     ecut=    60.00 Ry     beta= 0.20
     Davidson diagonalization with overlap
     ethr =  7.14E-07,  avg # of iterations =  2.0

     negative rho (up, down):  1.329E-01 0.000E+00

     total cpu time spent up to now is    19476.0 secs

     total energy              =  -20246.03411504 Ry
     Harris-Foulkes estimate   =  -20245.99194678 Ry
     estimated scf accuracy    <       0.00684875 Ry

     iteration # 16     ecut=    60.00 Ry     beta= 0.20
     Davidson diagonalization with overlap
     ethr =  3.81E-07,  avg # of iterations =  3.0

     negative rho (up, down):  1.462E-01 0.000E+00

     total cpu time spent up to now is    20393.3 secs

     total energy              =  -20246.05992148 Ry
     Harris-Foulkes estimate   =  -20246.03459176 Ry
     estimated scf accuracy    <       0.00366119 Ry

     iteration # 17     ecut=    60.00 Ry     beta= 0.20
     Davidson diagonalization with overlap
     ethr =  2.04E-07,  avg # of iterations =  3.0

     negative rho (up, down):  1.445E-01 0.000E+00

     total cpu time spent up to now is    21387.5 secs

     total energy              =  -20246.08089315 Ry
     Harris-Foulkes estimate   =  -20246.06024367 Ry
     estimated scf accuracy    <       0.00286562 Ry

     iteration # 18     ecut=    60.00 Ry     beta= 0.20
     Davidson diagonalization with overlap
     ethr =  1.59E-07,  avg # of iterations =  3.0

     negative rho (up, down):  1.498E-01 0.000E+00

     total cpu time spent up to now is    22294.0 secs

     total energy              =  -20246.09356995 Ry
     Harris-Foulkes estimate   =  -20246.08108859 Ry
     estimated scf accuracy    <       0.00274772 Ry

     iteration # 19     ecut=    60.00 Ry     beta= 0.20
     Davidson diagonalization with overlap
     ethr =  1.53E-07,  avg # of iterations =  3.0

     negative rho (up, down):  1.583E-01 0.000E+00

     total cpu time spent up to now is    23313.7 secs

     total energy              =  -20246.09929246 Ry
     Harris-Foulkes estimate   =  -20246.09383217 Ry
     estimated scf accuracy    <       0.00203887 Ry

     iteration # 20     ecut=    60.00 Ry     beta= 0.20
     Davidson diagonalization with overlap
     ethr =  1.13E-07,  avg # of iterations =  2.5

     negative rho (up, down):  1.642E-01 0.000E+00

     total cpu time spent up to now is    24185.8 secs

     total energy              =  -20246.10305031 Ry
     Harris-Foulkes estimate   =  -20246.09933368 Ry
     estimated scf accuracy    <       0.00191509 Ry

     iteration # 21     ecut=    60.00 Ry     beta= 0.20
     Davidson diagonalization with overlap
     ethr =  1.07E-07,  avg # of iterations =  2.5

     negative rho (up, down):  1.567E-01 0.000E+00

     total cpu time spent up to now is    25053.7 secs

     total energy              =  -20246.10514986 Ry
     Harris-Foulkes estimate   =  -20246.10306470 Ry
     estimated scf accuracy    <       0.00191725 Ry

     iteration # 22     ecut=    60.00 Ry     beta= 0.20
     Davidson diagonalization with overlap
     ethr =  1.07E-07,  avg # of iterations =  2.5

     negative rho (up, down):  1.554E-01 0.000E+00

     total cpu time spent up to now is    25928.0 secs

     total energy              =  -20246.10637601 Ry
     Harris-Foulkes estimate   =  -20246.10518764 Ry
     estimated scf accuracy    <       0.00191182 Ry

     iteration # 23     ecut=    60.00 Ry     beta= 0.20
     Davidson diagonalization with overlap
     ethr =  1.06E-07,  avg # of iterations =  1.0

     negative rho (up, down):  1.513E-01 0.000E+00

     total cpu time spent up to now is    26712.1 secs

     total energy              =  -20246.10616549 Ry
     Harris-Foulkes estimate   =  -20246.10638682 Ry
     estimated scf accuracy    <       0.00200601 Ry

     iteration # 24     ecut=    60.00 Ry     beta= 0.20
     Davidson diagonalization with overlap
     ethr =  1.06E-07,  avg # of iterations =  2.0

     negative rho (up, down):  1.514E-01 0.000E+00

     total cpu time spent up to now is    27555.1 secs

     total energy              =  -20246.10700628 Ry
     Harris-Foulkes estimate   =  -20246.10620958 Ry
     estimated scf accuracy    <       0.00189994 Ry

     iteration # 25     ecut=    60.00 Ry     beta= 0.20
     Davidson diagonalization with overlap
     ethr =  1.06E-07,  avg # of iterations =  2.0

     negative rho (up, down):  1.470E-01 0.000E+00

     total cpu time spent up to now is    28397.6 secs

     total energy              =  -20246.10604488 Ry
     Harris-Foulkes estimate   =  -20246.10705176 Ry
     estimated scf accuracy    <       0.00217901 Ry

     iteration # 26     ecut=    60.00 Ry     beta= 0.20
     Davidson diagonalization with overlap
     ethr =  1.06E-07,  avg # of iterations =  3.0

     negative rho (up, down):  1.450E-01 0.000E+00

     total cpu time spent up to now is    29300.9 secs

     total energy              =  -20246.10652089 Ry
     Harris-Foulkes estimate   =  -20246.10611394 Ry
     estimated scf accuracy    <       0.00178828 Ry

     iteration # 27     ecut=    60.00 Ry     beta= 0.20
     Davidson diagonalization with overlap
     ethr =  9.95E-08,  avg # of iterations =  2.0

     negative rho (up, down):  1.398E-01 0.000E+00

     total cpu time spent up to now is    30141.7 secs

     total energy              =  -20246.10581337 Ry
     Harris-Foulkes estimate   =  -20246.10653470 Ry
     estimated scf accuracy    <       0.00187804 Ry

     iteration # 28     ecut=    60.00 Ry     beta= 0.20
     Davidson diagonalization with overlap
     ethr =  9.95E-08,  avg # of iterations =  2.0

     negative rho (up, down):  1.442E-01 0.000E+00

     total cpu time spent up to now is    30986.4 secs

     total energy              =  -20246.10706223 Ry
     Harris-Foulkes estimate   =  -20246.10584569 Ry
     estimated scf accuracy    <       0.00174864 Ry

     iteration # 29     ecut=    60.00 Ry     beta= 0.20
     Davidson diagonalization with overlap
     ethr =  9.73E-08,  avg # of iterations =  2.0

     negative rho (up, down):  1.343E-01 0.000E+00

     total cpu time spent up to now is    31832.8 secs

     total energy              =  -20246.10529552 Ry
     Harris-Foulkes estimate   =  -20246.10710970 Ry
     estimated scf accuracy    <       0.00196611 Ry

     iteration # 30     ecut=    60.00 Ry     beta= 0.20
     Davidson diagonalization with overlap
     ethr =  9.73E-08,  avg # of iterations =  3.0

     negative rho (up, down):  1.370E-01 0.000E+00

     total cpu time spent up to now is    32821.2 secs

     total energy              =  -20246.10649697 Ry
     Harris-Foulkes estimate   =  -20246.10541161 Ry
     estimated scf accuracy    <       0.00176033 Ry

     iteration # 31     ecut=    60.00 Ry     beta= 0.20
     Davidson diagonalization with overlap
     ethr =  9.73E-08,  avg # of iterations =  2.0

     negative rho (up, down):  1.392E-01 0.000E+00

     total cpu time spent up to now is    33662.7 secs

     total energy              =  -20246.10689457 Ry
     Harris-Foulkes estimate   =  -20246.10651798 Ry
     estimated scf accuracy    <       0.00182902 Ry

     iteration # 32     ecut=    60.00 Ry     beta= 0.20
     Davidson diagonalization with overlap
     ethr =  9.73E-08,  avg # of iterations =  1.2

     negative rho (up, down):  1.414E-01 0.000E+00

     total cpu time spent up to now is    34456.8 secs

     total energy              =  -20246.10723387 Ry
     Harris-Foulkes estimate   =  -20246.10690163 Ry
     estimated scf accuracy    <       0.00182785 Ry

     iteration # 33     ecut=    60.00 Ry     beta= 0.20
     Davidson diagonalization with overlap
     ethr =  9.73E-08,  avg # of iterations =  1.1

     negative rho (up, down):  1.403E-01 0.000E+00

     total cpu time spent up to now is    35250.9 secs

     total energy              =  -20246.10713352 Ry
     Harris-Foulkes estimate   =  -20246.10724456 Ry
     estimated scf accuracy    <       0.00176464 Ry

     iteration # 34     ecut=    60.00 Ry     beta= 0.20
     Davidson diagonalization with overlap
     ethr =  9.73E-08,  avg # of iterations =  1.0

     negative rho (up, down):  1.394E-01 0.000E+00

     total cpu time spent up to now is    36034.9 secs

     total energy              =  -20246.10675554 Ry
     Harris-Foulkes estimate   =  -20246.10713676 Ry
     estimated scf accuracy    <       0.00178509 Ry

     iteration # 35     ecut=    60.00 Ry     beta= 0.20
     Davidson diagonalization with overlap
     ethr =  9.73E-08,  avg # of iterations =  1.0

     negative rho (up, down):  1.394E-01 0.000E+00

     total cpu time spent up to now is    36821.6 secs

     total energy              =  -20246.10664293 Ry
     Harris-Foulkes estimate   =  -20246.10676170 Ry
     estimated scf accuracy    <       0.00182525 Ry

     iteration # 36     ecut=    60.00 Ry     beta= 0.20
     Davidson diagonalization with overlap
     ethr =  9.73E-08,  avg # of iterations =  1.0

     negative rho (up, down):  1.391E-01 0.000E+00

     total cpu time spent up to now is    37608.5 secs

     total energy              =  -20246.10669797 Ry
     Harris-Foulkes estimate   =  -20246.10664577 Ry
     estimated scf accuracy    <       0.00178822 Ry

     iteration # 37     ecut=    60.00 Ry     beta= 0.20
     Davidson diagonalization with overlap
     ethr =  9.73E-08,  avg # of iterations =  1.0

     negative rho (up, down):  1.254E-01 0.000E+00

     total cpu time spent up to now is    38391.8 secs

     total energy              =  -20246.10564972 Ry
     Harris-Foulkes estimate   =  -20246.10669826 Ry
     estimated scf accuracy    <       0.00177707 Ry

     iteration # 38     ecut=    60.00 Ry     beta= 0.20
     Davidson diagonalization with overlap
     ethr =  9.73E-08,  avg # of iterations =  3.0

     negative rho (up, down):  1.289E-01 0.000E+00

     total cpu time spent up to now is    39405.5 secs

     total energy              =  -20246.10714294 Ry
     Harris-Foulkes estimate   =  -20246.10583176 Ry
     estimated scf accuracy    <       0.00258816 Ry

     iteration # 39     ecut=    60.00 Ry     beta= 0.20
     Davidson diagonalization with overlap
     ethr =  9.73E-08,  avg # of iterations =  2.0

     negative rho (up, down):  1.327E-01 0.000E+00

     total cpu time spent up to now is    40261.9 secs

     total energy              =  -20246.10764761 Ry
     Harris-Foulkes estimate   =  -20246.10721435 Ry
     estimated scf accuracy    <       0.00280421 Ry

     iteration # 40     ecut=    60.00 Ry     beta= 0.20
     Davidson diagonalization with overlap
     ethr =  9.73E-08,  avg # of iterations =  2.0

     negative rho (up, down):  1.366E-01 0.000E+00

     total cpu time spent up to now is    41103.0 secs

     total energy              =  -20246.10790330 Ry
     Harris-Foulkes estimate   =  -20246.10767646 Ry
     estimated scf accuracy    <       0.00247793 Ry

     iteration # 41     ecut=    60.00 Ry     beta= 0.20
     Davidson diagonalization with overlap
     ethr =  9.73E-08,  avg # of iterations =  2.0

     negative rho (up, down):  1.399E-01 0.000E+00

     total cpu time spent up to now is    41944.2 secs

     total energy              =  -20246.10807935 Ry
     Harris-Foulkes estimate   =  -20246.10791713 Ry
     estimated scf accuracy    <       0.00234760 Ry

     iteration # 42     ecut=    60.00 Ry     beta= 0.20
     Davidson diagonalization with overlap
     ethr =  9.73E-08,  avg # of iterations =  2.0

     negative rho (up, down):  1.407E-01 0.000E+00

     total cpu time spent up to now is    42788.2 secs

     total energy              =  -20246.10812492 Ry
     Harris-Foulkes estimate   =  -20246.10809673 Ry
     estimated scf accuracy    <       0.00236784 Ry

     iteration # 43     ecut=    60.00 Ry     beta= 0.20
     Davidson diagonalization with overlap
     ethr =  9.73E-08,  avg # of iterations =  1.0

     negative rho (up, down):  1.423E-01 0.000E+00

     total cpu time spent up to now is    43575.8 secs

     total energy              =  -20246.10809172 Ry
     Harris-Foulkes estimate   =  -20246.10813885 Ry
     estimated scf accuracy    <       0.00223177 Ry

     iteration # 44     ecut=    60.00 Ry     beta= 0.20
     Davidson diagonalization with overlap
     ethr =  9.73E-08,  avg # of iterations =  1.0

     negative rho (up, down):  1.415E-01 0.000E+00

     total cpu time spent up to now is    44360.9 secs

     total energy              =  -20246.10758488 Ry
     Harris-Foulkes estimate   =  -20246.10809833 Ry
     estimated scf accuracy    <       0.00218441 Ry

     iteration # 45     ecut=    60.00 Ry     beta= 0.20
     Davidson diagonalization with overlap
     ethr =  9.73E-08,  avg # of iterations =  1.0

     negative rho (up, down):  1.443E-01 0.000E+00

     total cpu time spent up to now is    45147.4 secs

     total energy              =  -20246.10672146 Ry
     Harris-Foulkes estimate   =  -20246.10759559 Ry
     estimated scf accuracy    <       0.00225973 Ry

     iteration # 46     ecut=    60.00 Ry     beta= 0.20
     Davidson diagonalization with overlap
     ethr =  9.73E-08,  avg # of iterations =  2.9

     negative rho (up, down):  1.467E-01 0.000E+00

     total cpu time spent up to now is    46042.0 secs

     total energy              =  -20246.10353434 Ry
     Harris-Foulkes estimate   =  -20246.10678124 Ry
     estimated scf accuracy    <       0.00195529 Ry

     iteration # 47     ecut=    60.00 Ry     beta= 0.20
     Davidson diagonalization with overlap
     ethr =  9.73E-08,  avg # of iterations =  3.0

     negative rho (up, down):  1.373E-01 0.000E+00

     total cpu time spent up to now is    47135.4 secs

     total energy              =  -20246.10283457 Ry
     Harris-Foulkes estimate   =  -20246.10389527 Ry
     estimated scf accuracy    <       0.00163411 Ry

     iteration # 48     ecut=    60.00 Ry     beta= 0.20
     Davidson diagonalization with overlap
     ethr =  9.09E-08,  avg # of iterations =  2.0

     negative rho (up, down):  1.293E-01 0.000E+00

     total cpu time spent up to now is    48078.8 secs

     total energy              =  -20246.09243146 Ry
     Harris-Foulkes estimate   =  -20246.10295851 Ry
     estimated scf accuracy    <       0.00168752 Ry

     iteration # 49     ecut=    60.00 Ry     beta= 0.20
     Davidson diagonalization with overlap
     ethr =  9.09E-08,  avg # of iterations =  3.3

     negative rho (up, down):  1.337E-01 0.000E+00

     total cpu time spent up to now is    49253.7 secs

     total energy              =  -20246.09630360 Ry
     Harris-Foulkes estimate   =  -20246.09361829 Ry
     estimated scf accuracy    <       0.00184513 Ry

     iteration # 50     ecut=    60.00 Ry     beta= 0.20
     Davidson diagonalization with overlap
     ethr =  9.09E-08,  avg # of iterations =  3.0

     negative rho (up, down):  1.334E-01 0.000E+00

     total cpu time spent up to now is    50163.4 secs

     total energy              =  -20246.06213149 Ry
     Harris-Foulkes estimate   =  -20246.09639828 Ry
     estimated scf accuracy    <       0.00165806 Ry

     iteration # 51     ecut=    60.00 Ry     beta= 0.20
     Davidson diagonalization with overlap
     ethr =  9.09E-08,  avg # of iterations =  4.0

     negative rho (up, down):  1.350E-01 0.000E+00

     total cpu time spent up to now is    51586.1 secs

     total energy              =  -20246.06583857 Ry
     Harris-Foulkes estimate   =  -20246.06690480 Ry
     estimated scf accuracy    <       0.00177161 Ry

     iteration # 52     ecut=    60.00 Ry     beta= 0.20
     Davidson diagonalization with overlap
     ethr =  9.09E-08,  avg # of iterations =  2.8

     negative rho (up, down):  1.339E-01 0.000E+00

     total cpu time spent up to now is    52658.5 secs

     total energy              =  -20246.09368607 Ry
     Harris-Foulkes estimate   =  -20246.06622861 Ry
     estimated scf accuracy    <       0.00159330 Ry

     iteration # 53     ecut=    60.00 Ry     beta= 0.20
     Davidson diagonalization with overlap
     ethr =  8.86E-08,  avg # of iterations =  3.5

     negative rho (up, down):  1.464E-01 0.000E+00

     total cpu time spent up to now is    53896.3 secs

     total energy              =  -20246.06309851 Ry
     Harris-Foulkes estimate   =  -20246.09568002 Ry
     estimated scf accuracy    <       0.00199752 Ry

     iteration # 54     ecut=    60.00 Ry     beta= 0.20
     Davidson diagonalization with overlap
     ethr =  8.86E-08,  avg # of iterations =  4.0

     negative rho (up, down):  2.189E-01 0.000E+00

     total cpu time spent up to now is    55320.2 secs

     total energy              =  -20246.03903489 Ry
     Harris-Foulkes estimate   =  -20246.06765511 Ry
     estimated scf accuracy    <       0.00198296 Ry

     iteration # 55     ecut=    60.00 Ry     beta= 0.20
     Davidson diagonalization with overlap
     ethr =  8.86E-08,  avg # of iterations =  4.0

     negative rho (up, down):  2.422E-01 0.000E+00

     total cpu time spent up to now is    56708.6 secs

     total energy              =  -20246.05025726 Ry
     Harris-Foulkes estimate   =  -20246.04247845 Ry
     estimated scf accuracy    <       0.00156326 Ry

     iteration # 56     ecut=    60.00 Ry     beta= 0.20
     Davidson diagonalization with overlap
     ethr =  8.69E-08,  avg # of iterations =  3.0

     negative rho (up, down):  2.404E-01 0.000E+00

     total cpu time spent up to now is    57799.6 secs

     End of self-consistent calculation

          k = 0.1250 0.1250 0.1250 (109838 PWs)   bands (ev):

   -52.3722 -52.3562 -52.1367 -52.1339 -52.1325 -52.1233 -52.1001 -52.0798
   -52.0777 -52.0727 -52.0637 -52.0625 -52.0592 -52.0571 -52.0554 -52.0497
   -52.0474 -52.0460 -52.0434 -52.0415 -52.0388 -52.0387 -52.0349 -52.0336
   -52.0322 -52.0280 -52.0264 -52.0260 -52.0218 -52.0182 -52.0164 -52.0095
   -52.0076 -52.0068 -52.0065 -52.0049 -52.0024 -52.0014 -52.0000 -51.9990
   -51.9988 -51.9985 -51.9979 -51.9974 -51.9966 -51.9962 -51.9952 -51.9951
   -51.9934 -51.9929 -51.9926 -51.9920 -51.9916 -51.9916 -51.9907 -51.9905
   -51.9897 -51.9896 -51.9890 -51.9889 -51.9886 -51.9876 -51.9872 -51.9870
   -51.9864 -51.9860 -51.9858 -51.9855 -51.9851 -51.9848 -51.9845 -51.9841
   -51.9839 -51.9836 -51.9831 -51.9824 -51.9821 -51.9820 -51.9816 -51.9815
   -51.9808 -51.9808 -51.9805 -51.9800 -51.9790 -51.9784 -51.9779 -51.9775
   -51.9775 -51.9765 -51.9760 -51.9743 -51.9733 -51.9718 -51.9689 -51.9666
   -51.9664 -51.9651 -51.9626 -51.9609 -51.9604 -51.9583 -51.9544 -51.9532
   -51.9522 -51.9489 -51.9483 -51.9477 -51.9449 -51.9438 -51.9425 -51.9421
   -51.9391 -51.9380 -51.9358 -51.9348 -51.9324 -51.9285 -51.9266 -51.9266
   -51.9244 -51.9194 -51.9184 -51.9178 -51.9104 -51.9088 -51.9044 -51.8894
   -18.4526 -17.7963 -16.9529 -16.9516 -16.8916 -16.8911 -16.8770 -16.8620
   -16.8421 -16.8396 -16.7930 -16.7902 -16.7604 -16.7488 -16.7484 -16.7468
   -16.7467 -16.7458 -16.7450 -16.7428 -16.7413 -16.7397 -16.7386 -16.7296
   -16.7250 -16.7235 -16.7196 -16.7147 -16.7100 -16.7037 -16.6996 -16.6983
   -16.6969 -16.6968 -16.6958 -16.6942 -16.6922 -16.6901 -16.6896 -16.6886
   -16.6870 -16.6863 -16.6835 -16.6812 -16.6792 -16.6775 -16.6770 -16.6753
   -16.6742 -16.6729 -16.6720 -16.6715 -16.6704 -16.6697 -16.6693 -16.6684
   -16.6683 -16.6666 -16.6661 -16.6657 -16.6642 -16.6638 -16.6616 -16.6601
   -16.6594 -16.6585 -16.6571 -16.6546 -16.6543 -16.6518 -16.6443 -16.6428
   -16.6365 -16.6301 -16.6298 -16.6261 -16.6205 -16.6170 -16.6165 -16.6092
   -16.6067 -16.6008 -16.6006 -16.5992 -16.5906 -16.5751 -16.5730 -16.5692
   -16.5619 -16.5608 -16.5494 -16.5435 -16.5419 -16.5383 -16.5367 -16.5349
   -16.5302 -16.5281 -16.5263 -16.5227 -16.5190 -16.5134 -16.4982 -16.4956
   -16.4930 -16.4884 -16.4814 -16.4811 -16.4617 -16.4612 -16.4571 -16.4544
   -16.4502 -16.4477 -16.4371 -16.4301 -16.4257 -16.4227 -16.4138 -16.4117
   -16.4075 -16.4004 -16.3975 -16.3972 -16.3882 -16.3860 -16.3790 -16.3761
   -16.3752 -16.3714 -16.3698 -16.3620 -16.3588 -16.3527 -16.3472 -16.3425
   -16.3382 -16.3381 -16.3352 -16.3270 -16.3226 -16.3221 -16.3189 -16.3169
   -16.3160 -16.3150 -16.3124 -16.3121 -16.3108 -16.3102 -16.2922 -16.2877
   -16.2868 -16.2808 -16.2806 -16.2727 -16.2686 -16.2673 -16.2582 -16.2560
   -16.2503 -16.2464 -16.2404 -16.2375 -16.2357 -16.2326 -16.2320 -16.2301
   -16.2269 -16.2259 -16.2258 -16.2192 -16.2127 -16.2072 -16.2043 -16.2036
   -16.2015 -16.2004 -16.1980 -16.1875 -16.1868 -16.1864 -16.1822 -16.1803
   -16.1787 -16.1723 -16.1712 -16.1684 -16.1657 -16.1612 -16.1574 -16.1558
   -16.1541 -16.1533 -16.1493 -16.1482 -16.1474 -16.1438 -16.1419 -16.1415
   -16.1391 -16.1370 -16.1352 -16.1339 -16.1329 -16.1317 -16.1297 -16.1295
   -16.1254 -16.1248 -16.1246 -16.1222 -16.1209 -16.1191 -16.1182 -16.1181
   -16.1165 -16.1155 -16.1150 -16.1149 -16.1132 -16.1101 -16.1011 -16.0941
   -16.0940 -16.0905 -16.0895 -16.0824 -16.0766 -16.0748 -16.0733 -16.0730
   -16.0727 -16.0682 -16.0664 -16.0652 -16.0645 -16.0624 -16.0619 -16.0613
   -16.0601 -16.0579 -16.0569 -16.0544 -16.0453 -16.0386 -16.0378 -16.0353
   -16.0335 -16.0252 -16.0177 -16.0130 -16.0062 -15.9973 -15.9691 -15.9679
   -15.9565 -15.9488 -15.9464 -15.9411 -15.9268 -15.9250 -15.9212 -15.9209
   -15.9164 -15.9118 -15.9108 -15.9098 -15.9078 -15.9060 -15.9053 -15.9030
   -15.9009 -15.8999 -15.8997 -15.8977 -15.8976 -15.8962 -15.8957 -15.8928
   -15.8917 -15.8905 -15.8899 -15.8893 -15.8885 -15.8877 -15.8847 -15.8831
   -15.8759 -15.8756 -15.8728 -15.8693 -15.8660 -15.8592 -15.8580 -15.8580
   -15.8494 -15.8490 -15.8488 -15.8460 -15.8418 -15.8414 -15.8404 -15.8373
   -15.8365 -15.8341 -15.8326 -15.8321 -15.8315 -15.8309 -15.8304 -15.8299
   -15.8287 -15.8285 -15.8277 -15.8277 -15.8269 -15.8265 -15.8261 -15.8258
   -15.8245 -15.8242 -15.8237 -15.8224 -15.8214 -15.8197 -15.8196 -15.8186
   -15.8181 -15.8168 -15.8163 -15.8156 -15.8151 -15.8133 -15.8118 -15.8111
   -15.8091 -15.8089 -15.8077 -15.8067 -15.8062 -15.8050 -15.8049 -15.8033
   -15.8022 -15.8011 -15.7970 -15.7968 -15.7941 -15.7900 -15.7887 -15.7850
   -15.7829 -15.7800 -15.7780 -15.7744 -15.7732 -15.7724 -15.7689 -15.7678
   -15.7645 -15.7637 -15.7593 -15.7176 -15.7155 -15.7103 -15.7102 -15.7092
   -15.7075 -15.7040 -15.7040 -15.7022 -15.7015 -15.7000 -15.6988 -15.6984
   -15.6979 -15.6960 -15.6932 -15.6923 -15.6915 -15.6889 -15.6867 -15.6859
    -1.4714  10.1256  10.1268  11.1935  12.7062  13.7456  13.7533  13.7798
    14.3868  14.3870  14.4200  14.5858  14.5874  14.6183  15.0493  15.0522
    15.0536  15.0725  15.0901  15.1008  15.4011  15.4081  15.4318  15.4631
    15.9126  15.9137  15.9295  16.0230  16.0337  16.0345  16.0912  16.0993
    16.1005  16.3376  16.3427  16.3496  16.3607  16.3649  16.3699  16.3813
    16.3902  16.3911  16.4826  16.5186  16.5241  16.5324  16.5349  16.5431
    16.5559  16.5740  16.6248  16.6331  16.6377  16.6565  16.6602  16.6622
    16.6806  16.6923  16.7300  16.8297  16.9302  16.9324  16.9402  16.9403
    16.9448  16.9730  17.0343  17.0615  17.0715  17.0771  17.0849  17.0893
    17.0906  17.0919  17.0933  17.1162  17.1324  17.1400  17.1779  17.1820
    17.1845  17.1885  17.2099  17.2172  17.2375  17.2511  17.2657  17.2696
    17.2772  17.3049  17.3415  17.3560  17.3693  17.3767  17.3780  17.3789
    17.3801  17.3890  17.3895  17.4077  17.4107  17.4139  17.4277  17.4278
    17.4395  17.4517  17.4577  17.4629  17.4664  17.4685  17.4699  17.4735
    17.4846  17.4932  17.5061  17.5375  17.5711  17.5728  17.5743  17.6002
    17.6009  17.6282  17.6535  17.6677  17.6715  17.6824  17.7930  17.7998
    17.9726  18.0551  18.0863  18.1573  18.2953  18.2970  18.3059  18.3258
    18.3350  18.3815  18.4554  18.4808  18.4976  18.5013  18.5061  18.5118
    18.5220  18.5244  18.5296  18.5328  18.5452  18.5467  18.5784  18.6043
    18.6192  18.6306  18.6462  18.6494  18.6556  18.6658  18.6695  18.6763
    18.6827  18.6889  18.6980  18.7027  18.7094  18.7314  18.7618  18.7772
    18.8646  18.8919  18.8998  18.9028  18.9144  18.9332  18.9427  18.9490
    18.9496  18.9601  18.9613  18.9637  18.9661  18.9671  18.9701  18.9703
    18.9728  18.9858  18.9880  18.9939  19.0008  19.0096  19.0185  19.0225
    19.0228  19.0273  19.0350  19.0458  19.0480  19.0488  19.0554  19.0577
    19.0583  19.0584  19.0744  19.0886  19.0941  19.0942  19.0998  19.1056
    19.1285  19.1305  19.1465  19.1689  19.2130  19.2136  19.2834  19.2872
    19.2978  19.3076  19.3085  19.3161  19.3199  19.3216  19.3243  19.3337
    19.3419  19.3612  19.3616  19.3740  19.3757  19.3781  19.3839  19.3873
    19.4066  19.4279  19.4313  19.4648  19.4674  19.4733  19.4825  19.4974
    19.5040  19.5093  19.5192  19.5237  19.5504  19.5574  19.5610  19.5682
    19.5862  19.5927  19.6172  19.6305  19.6347  19.6377  19.6467  19.6638
    19.6796  19.6806  19.6856  19.6886  19.6919  19.6937  19.7018  19.7034
    19.7089  19.7130  19.7235  19.7286  19.8109  19.8157  19.8193  19.8419
    19.8721  19.8831  19.8978  19.9050  19.9124  19.9191  19.9195  19.9255
    19.9283  19.9661  19.9726  19.9813  19.9845  19.9947  19.9988  20.0061
    20.0069  20.0152  20.0311  20.0317  20.0513  20.0687  20.0727  20.0776
    20.0818  20.0836  20.0955  20.0976  20.1030  20.1080  20.1105  20.1204
    20.2048  20.2197  20.2315  20.2476  20.2531  20.2582  20.2699  20.2712
    20.2721  20.3033  20.3118  20.3167  20.3227  20.3275  20.3305  20.3469
    20.3476  20.3579  20.4492  20.4540  20.4798  20.4856  20.4966  20.4994
    20.5675  20.6169  20.6201  20.6519  20.6607  20.6784  20.6916  20.6996
    20.7094  20.7136  20.7221  20.7261  20.7498  20.7500  20.7730  20.7810
    20.7868  20.7873  20.7959  20.8038  20.8095  20.8910  20.8933  20.9950
    21.0664  21.0813  21.1609  21.2019  21.2168  21.2359  21.2403  21.2499
    21.2621  21.2639  21.2677  21.2738  21.2759  21.2815  21.2901  21.4471
    21.4545  21.4921  21.5734  21.5757  21.5786  21.6051  21.6154  21.6348
    21.6973  21.7176  21.7800  21.8382  21.8495  21.8567  21.8720  21.9043
    21.9298  21.9346  22.0822  22.1079  22.1640  22.1977  22.2235  22.2795
    22.2983  22.3538  22.4134  22.4205  22.4210  22.4285  22.4611  22.4750
    22.4818  22.4995  22.5258  22.5478  22.6146  22.7185  22.7695  22.7822
    22.7912  22.7975  22.8203  22.8478  22.8501  22.8533  22.8753  22.9078
    22.9081  22.9516  22.9575  22.9575  22.9709  23.0308  23.0383  23.0465
    23.0773  23.0807  23.1024  23.1617  23.1748  23.1762  23.1997  23.2518
    23.2606  23.2734  23.3056  23.3120  23.3279  23.3343  23.4303  23.4707
    23.4825  23.4895  23.4921  23.4940  23.5031  23.5091  23.5150  23.5167
    23.5207  23.5298  23.5395  23.5401  23.5422  23.5471  23.5784  23.5803
    23.6107  23.6188  23.6269  23.6301  23.6428  23.6432  23.6597  23.6608
    23.6636  23.6637  23.7326  23.7577  23.8074  23.8313  23.8384  23.8564
    23.8693  23.8828  23.8852  23.8967  23.9004  23.9059  23.9123  23.9286
    23.9333  23.9384  23.9521  23.9645  23.9731  23.9942  24.0188  24.0382
    24.0524  24.0633  24.0960  24.1028  24.1117  24.1322  24.1394  24.1743
    24.2104  24.2178  24.2329  24.2448  24.2471  24.2477  24.2508  24.2519
    24.2594  24.2595  24.2742  24.2777  24.2834  24.2908  24.2939  24.2955
    24.3034  24.3113  24.3163  24.3168  24.3772  24.4014  24.4036  24.4151
    24.4182  24.4305  24.4384  24.4443  24.5086  24.5305  24.5329  24.5476
    24.5564  24.5594  24.5620  24.5704  24.5718  24.5791  24.5851  24.6022
    24.6024  24.6057  24.6066  24.6077  24.6255  24.6399  24.6461  24.6541
    24.6566  24.6655  24.6912  24.6988  24.7115  24.7469  24.7844  24.7911
    24.7931  24.8113  24.8158  24.8263  24.8317  24.8425  24.8532  24.8763
    24.8773  25.0290  25.0589  25.0691  25.0837  25.0888  25.0949

     occupation numbers 
     1.0000   1.0000   1.0000   1.0000   1.0000   1.0000   1.0000   1.0000
     1.0000   1.0000   1.0000   1.0000   1.0000   1.0000   1.0000   1.0000
     1.0000   1.0000   1.0000   1.0000   1.0000   1.0000   1.0000   1.0000
     1.0000   1.0000   1.0000   1.0000   1.0000   1.0000   1.0000   1.0000
     1.0000   1.0000   1.0000   1.0000   1.0000   1.0000   1.0000   1.0000
     1.0000   1.0000   1.0000   1.0000   1.0000   1.0000   1.0000   1.0000
     1.0000   1.0000   1.0000   1.0000   1.0000   1.0000   1.0000   1.0000
     1.0000   1.0000   1.0000   1.0000   1.0000   1.0000   1.0000   1.0000
     1.0000   1.0000   1.0000   1.0000   1.0000   1.0000   1.0000   1.0000
     1.0000   1.0000   1.0000   1.0000   1.0000   1.0000   1.0000   1.0000
     1.0000   1.0000   1.0000   1.0000   1.0000   1.0000   1.0000   1.0000
     1.0000   1.0000   1.0000   1.0000   1.0000   1.0000   1.0000   1.0000
     1.0000   1.0000   1.0000   1.0000   1.0000   1.0000   1.0000   1.0000
     1.0000   1.0000   1.0000   1.0000   1.0000   1.0000   1.0000   1.0000
     1.0000   1.0000   1.0000   1.0000   1.0000   1.0000   1.0000   1.0000
     1.0000   1.0000   1.0000   1.0000   1.0000   1.0000   1.0000   1.0000
     1.0000   1.0000   1.0000   1.0000   1.0000   1.0000   1.0000   1.0000
     1.0000   1.0000   1.0000   1.0000   1.0000   1.0000   1.0000   1.0000
     1.0000   1.0000   1.0000   1.0000   1.0000   1.0000   1.0000   1.0000
     1.0000   1.0000   1.0000   1.0000   1.0000   1.0000   1.0000   1.0000
     1.0000   1.0000   1.0000   1.0000   1.0000   1.0000   1.0000   1.0000
     1.0000   1.0000   1.0000   1.0000   1.0000   1.0000   1.0000   1.0000
     1.0000   1.0000   1.0000   1.0000   1.0000   1.0000   1.0000   1.0000
     1.0000   1.0000   1.0000   1.0000   1.0000   1.0000   1.0000   1.0000
     1.0000   1.0000   1.0000   1.0000   1.0000   1.0000   1.0000   1.0000
     1.0000   1.0000   1.0000   1.0000   1.0000   1.0000   1.0000   1.0000
     1.0000   1.0000   1.0000   1.0000   1.0000   1.0000   1.0000   1.0000
     1.0000   1.0000   1.0000   1.0000   1.0000   1.0000   1.0000   1.0000
     1.0000   1.0000   1.0000   1.0000   1.0000   1.0000   1.0000   1.0000
     1.0000   1.0000   1.0000   1.0000   1.0000   1.0000   1.0000   1.0000
     1.0000   1.0000   1.0000   1.0000   1.0000   1.0000   1.0000   1.0000
     1.0000   1.0000   1.0000   1.0000   1.0000   1.0000   1.0000   1.0000
     1.0000   1.0000   1.0000   1.0000   1.0000   1.0000   1.0000   1.0000
     1.0000   1.0000   1.0000   1.0000   1.0000   1.0000   1.0000   1.0000
     1.0000   1.0000   1.0000   1.0000   1.0000   1.0000   1.0000   1.0000
     1.0000   1.0000   1.0000   1.0000   1.0000   1.0000   1.0000   1.0000
     1.0000   1.0000   1.0000   1.0000   1.0000   1.0000   1.0000   1.0000
     1.0000   1.0000   1.0000   1.0000   1.0000   1.0000   1.0000   1.0000
     1.0000   1.0000   1.0000   1.0000   1.0000   1.0000   1.0000   1.0000
     1.0000   1.0000   1.0000   1.0000   1.0000   1.0000   1.0000   1.0000
     1.0000   1.0000   1.0000   1.0000   1.0000   1.0000   1.0000   1.0000
     1.0000   1.0000   1.0000   1.0000   1.0000   1.0000   1.0000   1.0000
     1.0000   1.0000   1.0000   1.0000   1.0000   1.0000   1.0000   1.0000
     1.0000   1.0000   1.0000   1.0000   1.0000   1.0000   1.0000   1.0000
     1.0000   1.0000   1.0000   1.0000   1.0000   1.0000   1.0000   1.0000
     1.0000   1.0000   1.0000   1.0000   1.0000   1.0000   1.0000   1.0000
     1.0000   1.0000   1.0000   1.0000   1.0000   1.0000   1.0000   1.0000
     1.0000   1.0000   1.0000   1.0000   1.0000   1.0000   1.0000   1.0000
     1.0000   1.0000   1.0000   1.0000   1.0000   1.0000   1.0000   1.0000
     1.0000   1.0000   1.0000   1.0000   1.0000   1.0000   1.0000   1.0000
     1.0000   1.0000   1.0000   1.0000   1.0000   1.0000   1.0000   1.0000
     1.0000   1.0000   1.0000   1.0000   1.0000   1.0000   1.0000   1.0000
     1.0000   1.0000   1.0000   1.0000   1.0000   1.0000   1.0000   1.0000
     1.0000   1.0000   1.0000   1.0000   1.0000   1.0000   1.0000   1.0000
     1.0000   1.0000   1.0000   1.0000   1.0000   1.0000   1.0000   1.0000
     1.0000   1.0000   1.0000   1.0000   1.0000   1.0000   1.0000   1.0000
     1.0000   1.0000   1.0000   1.0000   1.0000   1.0000   1.0000   1.0000
     1.0000   1.0000   1.0000   1.0000   1.0000   1.0000   1.0000   1.0000
     1.0000   1.0000   1.0000   1.0000   1.0000   1.0000   1.0000   1.0000
     1.0000   1.0000   1.0000   1.0000   1.0000   1.0000   1.0000   1.0000
     1.0000   1.0000   1.0000   1.0000   1.0000   1.0000   1.0000   1.0000
     1.0000   1.0000   1.0000   1.0000   1.0000   1.0000   1.0000   1.0000
     1.0000   1.0000   1.0000   1.0000   1.0000   1.0000   1.0000   1.0000
     1.0000   1.0000   1.0000   1.0000   1.0000   1.0000   1.0000   1.0000
     1.0000   1.0000   1.0000   1.0000   1.0000   1.0000   1.0000   1.0000
     1.0000   1.0000   1.0000   1.0000   1.0000   1.0000   1.0000   1.0000
     1.0000   1.0000   1.0000   1.0000   1.0000   1.0000   1.0000   1.0000
     1.0000   1.0000   1.0000   1.0000   1.0000   1.0000   1.0000   1.0000
     1.0000   1.0000   1.0000   1.0000   1.0000   1.0000   1.0000   1.0000
     1.0000   1.0000   1.0000   1.0000   1.0000   1.0000   1.0000   1.0000
     1.0000   1.0000   1.0000   1.0000   1.0000   1.0000   1.0000   1.0000
     1.0000   1.0000   1.0000   1.0000   1.0000   1.0000   1.0000   1.0000
     1.0000   1.0000   1.0000   1.0000   1.0000   1.0000   1.0000   1.0000
     1.0000   1.0000   1.0000   1.0000   1.0000   1.0000   1.0000   1.0000
     1.0000   1.0000   1.0000   1.0000   1.0000   1.0000   1.0000   1.0000
     1.0000   1.0000   1.0000   1.0000   1.0000   1.0000   1.0000   1.0000
     1.0000   1.0000   1.0000   1.0000   1.0000   1.0000   1.0000   1.0000
     1.0000   1.0000   1.0000   1.0000   1.0000   1.0000   1.0000   1.0000
     1.0000   1.0000   1.0000   1.0000   1.0000   1.0000   1.0000   1.0000
     1.0000   1.0000   1.0000   1.0000   1.0000   1.0000   1.0000   1.0000
     1.0000   1.0000   1.0000   1.0000   1.0000   1.0000   1.0000   1.0000
     1.0000   1.0000   1.0000   1.0000   1.0000   1.0000   1.0000   1.0000
     1.0000   1.0000   1.0000   1.0000   1.0000   1.0000   1.0000   1.0000
     1.0000   1.0000   1.0000   1.0000   1.0000   1.0000   1.0000   1.0000
     1.0000   1.0000   1.0000   1.0000   1.0000   1.0000   1.0000   1.0000
     1.0000   1.0000   1.0000   1.0000   1.0000   1.0000   1.0000   1.0000
     1.0000   1.0000   1.0000   1.0000   1.0000   1.0000   1.0000   1.0000
     1.0000   1.0000   1.0000   1.0000   1.0000   1.0000   1.0000   1.0000
     1.0000   1.0000   1.0000   1.0000   1.0000   1.0000   1.0000   1.0000
     1.0000   1.0000   1.0000   1.0000   1.0000   1.0000   1.0000   1.0000
     1.0000   1.0000   1.0000   1.0000   1.0000   1.0000   1.0000   1.0000
     1.0000   1.0000   1.0000   1.0000   1.0000   1.0000   1.0000   1.0000
     1.0000   1.0000   1.0000   1.0000   1.0000   1.0000   1.0000   1.0000
     1.0000   1.0000   1.0000   1.0000   1.0000   1.0000   1.0000   1.0000
     1.0000   1.0000   1.0000   1.0000   1.0000   1.0000   1.0000   1.0000
     1.0000   1.0000   1.0000   1.0000   1.0000   1.0000   1.0000   1.0000
     1.0000   1.0000   1.0000   1.0000   1.0000   1.0000   1.0000   1.0000
     1.0000   1.0000   1.0000   1.0000   1.0000   1.0000   1.0000   1.0000
     1.0000   1.0000   1.0000   1.0000   1.0000   1.0000   1.0000   1.0000
     1.0000   1.0000   1.0000   1.0000   1.0000   1.0000   1.0000   1.0000
     1.0000   1.0000   1.0000   1.0000   1.0000   1.0000   1.0000   1.0000
     1.0000   1.0000   1.0000   1.0000   1.0000   1.0000   1.0000   1.0000
     1.0000   1.0000   1.0000   1.0000   1.0000   1.0000   1.0000   1.0000
     1.0000   1.0000   1.0000   1.0000   1.0000   1.0000   1.0000   1.0000
     1.0000   1.0000   1.0000   1.0000   1.0000   1.0000   1.0000   1.0000
     1.0000   1.0000   1.0000   1.0000   1.0000   1.0000   1.0000   1.0000
     1.0000   1.0000   1.0000   1.0000   1.0000   1.0000   1.0000   1.0000
     1.0000   1.0000   1.0000   1.0000   1.0000   1.0000   1.0000   1.0000
     1.0000   1.0000   1.0001   1.0003   1.0004   1.0005   1.0005   1.0006
     1.0008   1.0008   1.0009   1.0010   1.0010   1.0011   1.0013   1.0121
     1.0132   1.0201   1.0421   1.0429   1.0438   1.0528   1.0564   1.0630
     1.0802   1.0828   1.0738   1.0318   1.0191   1.0101   0.9889   0.9349
     0.8834   0.8731   0.4860   0.4184   0.2862   0.2197   0.1762   0.1031
     0.0846   0.0448   0.0208   0.0188   0.0187   0.0168   0.0105   0.0085
     0.0077   0.0058   0.0038   0.0026   0.0008   0.0001   0.0000   0.0000
     0.0000   0.0000   0.0000   0.0000   0.0000   0.0000   0.0000   0.0000
     0.0000   0.0000   0.0000   0.0000   0.0000   0.0000   0.0000   0.0000
     0.0000   0.0000   0.0000   0.0000   0.0000   0.0000   0.0000   0.0000
     0.0000   0.0000   0.0000   0.0000   0.0000   0.0000   0.0000   0.0000
     0.0000   0.0000   0.0000   0.0000   0.0000   0.0000   0.0000   0.0000
     0.0000   0.0000   0.0000   0.0000   0.0000   0.0000   0.0000   0.0000
     0.0000   0.0000   0.0000   0.0000   0.0000   0.0000   0.0000   0.0000
     0.0000   0.0000   0.0000   0.0000   0.0000   0.0000   0.0000   0.0000
     0.0000   0.0000   0.0000   0.0000   0.0000   0.0000   0.0000   0.0000
     0.0000   0.0000   0.0000   0.0000   0.0000   0.0000   0.0000   0.0000
     0.0000   0.0000   0.0000   0.0000   0.0000   0.0000   0.0000   0.0000
     0.0000   0.0000   0.0000   0.0000   0.0000   0.0000   0.0000   0.0000
     0.0000   0.0000   0.0000   0.0000   0.0000   0.0000   0.0000   0.0000
     0.0000   0.0000   0.0000   0.0000   0.0000   0.0000   0.0000   0.0000
     0.0000   0.0000   0.0000   0.0000   0.0000   0.0000   0.0000   0.0000
     0.0000   0.0000   0.0000   0.0000   0.0000   0.0000   0.0000   0.0000
     0.0000   0.0000   0.0000   0.0000   0.0000   0.0000   0.0000   0.0000
     0.0000   0.0000   0.0000   0.0000   0.0000   0.0000   0.0000   0.0000
     0.0000   0.0000   0.0000   0.0000   0.0000   0.0000   0.0000   0.0000
     0.0000   0.0000   0.0000   0.0000   0.0000   0.0000   0.0000

          k = 0.1250 0.1250 0.3750 (109885 PWs)   bands (ev):

   -52.3722 -52.3562 -52.1365 -52.1338 -52.1327 -52.1234 -52.0974 -52.0869
   -52.0752 -52.0733 -52.0667 -52.0606 -52.0598 -52.0577 -52.0544 -52.0525
   -52.0467 -52.0440 -52.0426 -52.0422 -52.0387 -52.0334 -52.0324 -52.0317
   -52.0283 -52.0258 -52.0240 -52.0224 -52.0191 -52.0170 -52.0148 -52.0137
   -52.0118 -52.0100 -52.0084 -52.0071 -52.0059 -52.0057 -52.0038 -52.0026
   -52.0018 -52.0008 -51.9999 -51.9995 -51.9984 -51.9976 -51.9972 -51.9963
   -51.9957 -51.9955 -51.9940 -51.9933 -51.9923 -51.9918 -51.9911 -51.9910
   -51.9900 -51.9892 -51.9890 -51.9886 -51.9884 -51.9881 -51.9875 -51.9873
   -51.9869 -51.9864 -51.9860 -51.9852 -51.9850 -51.9844 -51.9841 -51.9836
   -51.9833 -51.9827 -51.9822 -51.9820 -51.9818 -51.9810 -51.9804 -51.9793
   -51.9787 -51.9785 -51.9782 -51.9779 -51.9771 -51.9765 -51.9758 -51.9750
   -51.9742 -51.9735 -51.9727 -51.9707 -51.9704 -51.9675 -51.9667 -51.9655
   -51.9643 -51.9640 -51.9628 -51.9606 -51.9594 -51.9588 -51.9573 -51.9566
   -51.9541 -51.9531 -51.9503 -51.9486 -51.9483 -51.9461 -51.9421 -51.9410
   -51.9399 -51.9387 -51.9369 -51.9345 -51.9329 -51.9295 -51.9277 -51.9264
   -51.9238 -51.9196 -51.9186 -51.9165 -51.9110 -51.9051 -51.9028 -51.8911
   -18.4526 -17.7963 -16.9482 -16.9463 -16.8732 -16.8714 -16.8533 -16.8402
   -16.8348 -16.8301 -16.8241 -16.8200 -16.8070 -16.7950 -16.7866 -16.7768
   -16.7696 -16.7636 -16.7618 -16.7554 -16.7532 -16.7430 -16.7339 -16.7320
   -16.7305 -16.7278 -16.7261 -16.7232 -16.7154 -16.7126 -16.7105 -16.7085
   -16.7065 -16.7036 -16.7006 -16.6953 -16.6936 -16.6924 -16.6899 -16.6872
   -16.6867 -16.6848 -16.6805 -16.6801 -16.6794 -16.6754 -16.6741 -16.6724
   -16.6700 -16.6696 -16.6668 -16.6660 -16.6650 -16.6620 -16.6600 -16.6594
   -16.6579 -16.6566 -16.6550 -16.6531 -16.6518 -16.6509 -16.6477 -16.6470
   -16.6443 -16.6411 -16.6400 -16.6376 -16.6353 -16.6321 -16.6275 -16.6240
   -16.6206 -16.6195 -16.6193 -16.6150 -16.6135 -16.6078 -16.6054 -16.6005
   -16.5962 -16.5900 -16.5876 -16.5869 -16.5853 -16.5793 -16.5774 -16.5710
   -16.5668 -16.5629 -16.5521 -16.5453 -16.5410 -16.5394 -16.5339 -16.5336
   -16.5225 -16.5178 -16.5130 -16.5046 -16.5022 -16.4995 -16.4962 -16.4950
   -16.4853 -16.4834 -16.4799 -16.4733 -16.4686 -16.4672 -16.4647 -16.4562
   -16.4498 -16.4467 -16.4455 -16.4368 -16.4331 -16.4307 -16.4301 -16.4256
   -16.4197 -16.4188 -16.4150 -16.4114 -16.4079 -16.4054 -16.4012 -16.3986
   -16.3937 -16.3864 -16.3808 -16.3797 -16.3769 -16.3746 -16.3613 -16.3592
   -16.3542 -16.3507 -16.3483 -16.3449 -16.3400 -16.3391 -16.3340 -16.3284
   -16.3245 -16.3185 -16.3160 -16.3120 -16.2934 -16.2904 -16.2872 -16.2833
   -16.2805 -16.2783 -16.2759 -16.2726 -16.2678 -16.2651 -16.2605 -16.2577
   -16.2513 -16.2473 -16.2423 -16.2411 -16.2388 -16.2351 -16.2316 -16.2284
   -16.2247 -16.2195 -16.2185 -16.2126 -16.2080 -16.2068 -16.2054 -16.2028
   -16.2018 -16.1991 -16.1972 -16.1936 -16.1925 -16.1899 -16.1897 -16.1876
   -16.1830 -16.1786 -16.1765 -16.1744 -16.1693 -16.1664 -16.1622 -16.1600
   -16.1544 -16.1543 -16.1516 -16.1485 -16.1465 -16.1452 -16.1433 -16.1424
   -16.1406 -16.1368 -16.1321 -16.1264 -16.1247 -16.1216 -16.1181 -16.1163
   -16.1135 -16.1105 -16.1082 -16.1063 -16.1054 -16.1028 -16.1019 -16.1005
   -16.0941 -16.0913 -16.0898 -16.0866 -16.0851 -16.0829 -16.0818 -16.0787
   -16.0784 -16.0762 -16.0752 -16.0731 -16.0702 -16.0679 -16.0668 -16.0662
   -16.0658 -16.0642 -16.0618 -16.0586 -16.0549 -16.0522 -16.0517 -16.0476
   -16.0431 -16.0372 -16.0319 -16.0235 -16.0198 -16.0125 -16.0094 -16.0083
   -16.0059 -16.0006 -15.9976 -15.9955 -15.9921 -15.9902 -15.9872 -15.9806
   -15.9791 -15.9742 -15.9739 -15.9712 -15.9697 -15.9688 -15.9677 -15.9658
   -15.9623 -15.9605 -15.9592 -15.9564 -15.9537 -15.9524 -15.9440 -15.9414
   -15.9364 -15.9314 -15.9211 -15.9186 -15.9107 -15.9050 -15.9006 -15.8998
   -15.8982 -15.8970 -15.8935 -15.8913 -15.8879 -15.8859 -15.8841 -15.8821
   -15.8789 -15.8778 -15.8755 -15.8745 -15.8728 -15.8720 -15.8705 -15.8667
   -15.8658 -15.8644 -15.8618 -15.8581 -15.8555 -15.8548 -15.8534 -15.8517
   -15.8498 -15.8475 -15.8447 -15.8434 -15.8416 -15.8386 -15.8355 -15.8338
   -15.8325 -15.8297 -15.8262 -15.8243 -15.8236 -15.8228 -15.8214 -15.8202
   -15.8198 -15.8186 -15.8175 -15.8167 -15.8159 -15.8149 -15.8135 -15.8132
   -15.8120 -15.8097 -15.8092 -15.8079 -15.8066 -15.8048 -15.8034 -15.7988
   -15.7978 -15.7921 -15.7911 -15.7878 -15.7852 -15.7820 -15.7803 -15.7771
   -15.7750 -15.7740 -15.7718 -15.7694 -15.7686 -15.7674 -15.7653 -15.7603
   -15.7557 -15.7517 -15.7509 -15.7490 -15.7460 -15.7404 -15.7363 -15.7334
   -15.7327 -15.7324 -15.7315 -15.7314 -15.7303 -15.7297 -15.7287 -15.7270
   -15.7257 -15.7246 -15.7224 -15.7211 -15.7173 -15.7161 -15.7144 -15.7107
   -15.7103 -15.7091 -15.7080 -15.7023 -15.7017 -15.7004 -15.6989 -15.6942
    -1.4714  10.1256  10.1268  11.1936  12.8894  13.2482  13.9016  13.9161
    14.1883  14.2071  14.5135  14.5317  14.7443  14.7577  14.7696  15.0532
    15.1321  15.2182  15.2359  15.5140  15.5303  15.5679  15.5821  15.5905
    15.7466  15.7630  15.8987  15.9090  16.0570  16.0581  16.0714  16.0751
    16.0938  16.1111  16.1936  16.1960  16.2119  16.2362  16.2457  16.2782
    16.3690  16.4191  16.4242  16.5218  16.5304  16.5772  16.6028  16.6105
    16.6236  16.6316  16.6463  16.6547  16.6693  16.6761  16.6986  16.7210
    16.7362  16.7638  16.7996  16.8078  16.8181  16.8286  16.8545  16.8846
    16.9094  16.9246  16.9359  16.9575  16.9892  17.0048  17.0510  17.0698
    17.0845  17.1077  17.1157  17.1275  17.1369  17.1548  17.1597  17.1642
    17.1681  17.1757  17.1805  17.1829  17.1933  17.2161  17.2266  17.2405
    17.2516  17.2546  17.2699  17.2717  17.2770  17.2823  17.3247  17.3333
    17.3506  17.3729  17.4103  17.4229  17.4424  17.4614  17.4807  17.5075
    17.5142  17.5395  17.5649  17.5892  17.6206  17.6255  17.6322  17.6372
    17.6439  17.6451  17.6516  17.6551  17.6641  17.6702  17.6769  17.6964
[...]

     iteration # 61     ecut=    60.00 Ry     beta= 0.20
     Davidson diagonalization with overlap
     ethr =  7.23E-08,  avg # of iterations =  2.0

     negative rho (up, down):  7.188E-01 0.000E+00

     total cpu time spent up to now is   103660.1 secs

     total energy              =  -20246.48826293 Ry
     Harris-Foulkes estimate   =  -20246.48579570 Ry
     estimated scf accuracy    <       0.00133697 Ry

     iteration # 62     ecut=    60.00 Ry     beta= 0.20
     Davidson diagonalization with overlap
     ethr =  7.23E-08,  avg # of iterations =  1.0

     negative rho (up, down):  7.177E-01 0.000E+00

     total cpu time spent up to now is   104430.9 secs

     total energy              =  -20246.48981245 Ry
     Harris-Foulkes estimate   =  -20246.48827302 Ry
     estimated scf accuracy    <       0.00130792 Ry

     iteration # 63     ecut=    60.00 Ry     beta= 0.20
     Davidson diagonalization with overlap
     ethr =  7.23E-08,  avg # of iterations =  2.0

     negative rho (up, down):  7.331E-01 0.000E+00

     total cpu time spent up to now is   105404.7 secs

     total energy              =  -20246.48967205 Ry
     Harris-Foulkes estimate   =  -20246.48992435 Ry
     estimated scf accuracy    <       0.00137683 Ry

     iteration # 64     ecut=    60.00 Ry     beta= 0.20
     Davidson diagonalization with overlap
     ethr =  7.23E-08,  avg # of iterations =  2.0

     negative rho (up, down):  7.535E-01 0.000E+00

     total cpu time spent up to now is   106257.1 secs

     total energy              =  -20246.48886450 Ry
     Harris-Foulkes estimate   =  -20246.48972695 Ry
     estimated scf accuracy    <       0.00150579 Ry

     iteration # 65     ecut=    60.00 Ry     beta= 0.20
     Davidson diagonalization with overlap
     ethr =  7.23E-08,  avg # of iterations =  3.0

     negative rho (up, down):  7.589E-01 0.000E+00

     total cpu time spent up to now is   107301.7 secs

     total energy              =  -20246.48964325 Ry
     Harris-Foulkes estimate   =  -20246.48901355 Ry
     estimated scf accuracy    <       0.00137826 Ry

     iteration # 66     ecut=    60.00 Ry     beta= 0.20
     Davidson diagonalization with overlap
     ethr =  7.23E-08,  avg # of iterations =  2.0

     negative rho (up, down):  7.412E-01 0.000E+00

     total cpu time spent up to now is   108134.5 secs

     total energy              =  -20246.49286840 Ry
     Harris-Foulkes estimate   =  -20246.48966652 Ry
     estimated scf accuracy    <       0.00131539 Ry

     iteration # 67     ecut=    60.00 Ry     beta= 0.20
     Davidson diagonalization with overlap
     ethr =  7.23E-08,  avg # of iterations =  2.0

     negative rho (up, down):  7.280E-01 0.000E+00

     total cpu time spent up to now is   109068.7 secs

     total energy              =  -20246.49493409 Ry
     Harris-Foulkes estimate   =  -20246.49294650 Ry
     estimated scf accuracy    <       0.00136711 Ry

     iteration # 68     ecut=    60.00 Ry     beta= 0.20
     Davidson diagonalization with overlap
     ethr =  7.23E-08,  avg # of iterations =  2.0

     negative rho (up, down):  7.430E-01 0.000E+00

     total cpu time spent up to now is   110036.3 secs

     total energy              =  -20246.49331781 Ry
     Harris-Foulkes estimate   =  -20246.49503497 Ry
     estimated scf accuracy    <       0.00141888 Ry

     iteration # 69     ecut=    60.00 Ry     beta= 0.20
     Davidson diagonalization with overlap
     ethr =  7.23E-08,  avg # of iterations =  2.0

     negative rho (up, down):  7.807E-01 0.000E+00

     total cpu time spent up to now is   111004.9 secs

     total energy              =  -20246.48711118 Ry
     Harris-Foulkes estimate   =  -20246.49342219 Ry
     estimated scf accuracy    <       0.00158497 Ry

     iteration # 70     ecut=    60.00 Ry     beta= 0.20
     Davidson diagonalization with overlap
     ethr =  7.23E-08,  avg # of iterations =  3.0

     negative rho (up, down):  7.819E-01 0.000E+00

     total cpu time spent up to now is   112130.1 secs

     total energy              =  -20246.49031951 Ry
     Harris-Foulkes estimate   =  -20246.48785818 Ry
     estimated scf accuracy    <       0.00133065 Ry

     iteration # 71     ecut=    60.00 Ry     beta= 0.20
     Davidson diagonalization with overlap
     ethr =  7.23E-08,  avg # of iterations =  2.0

     negative rho (up, down):  7.861E-01 0.000E+00

     total cpu time spent up to now is   113102.9 secs

     total energy              =  -20246.49068448 Ry
     Harris-Foulkes estimate   =  -20246.49042315 Ry
     estimated scf accuracy    <       0.00142341 Ry

     iteration # 72     ecut=    60.00 Ry     beta= 0.20
     Davidson diagonalization with overlap
     ethr =  7.23E-08,  avg # of iterations =  1.2

     negative rho (up, down):  7.843E-01 0.000E+00

     total cpu time spent up to now is   113885.9 secs

     total energy              =  -20246.49236033 Ry
     Harris-Foulkes estimate   =  -20246.49070134 Ry
     estimated scf accuracy    <       0.00135588 Ry

     iteration # 73     ecut=    60.00 Ry     beta= 0.20
     Davidson diagonalization with overlap
     ethr =  7.23E-08,  avg # of iterations =  2.0

     negative rho (up, down):  7.885E-01 0.000E+00

     total cpu time spent up to now is   114723.3 secs

     total energy              =  -20246.49188782 Ry
     Harris-Foulkes estimate   =  -20246.49240311 Ry
     estimated scf accuracy    <       0.00145292 Ry

     iteration # 74     ecut=    60.00 Ry     beta= 0.20
     Davidson diagonalization with overlap
     ethr =  7.23E-08,  avg # of iterations =  2.0

     negative rho (up, down):  8.148E-01 0.000E+00

     total cpu time spent up to now is   115582.8 secs

     total energy              =  -20246.49033309 Ry
     Harris-Foulkes estimate   =  -20246.49196129 Ry
     estimated scf accuracy    <       0.00152889 Ry

     iteration # 75     ecut=    60.00 Ry     beta= 0.20
     Davidson diagonalization with overlap
     ethr =  7.23E-08,  avg # of iterations =  3.0

     negative rho (up, down):  8.173E-01 0.000E+00

     total cpu time spent up to now is   116646.0 secs

     total energy              =  -20246.49155006 Ry
     Harris-Foulkes estimate   =  -20246.49053498 Ry
     estimated scf accuracy    <       0.00158205 Ry

     iteration # 76     ecut=    60.00 Ry     beta= 0.20
     Davidson diagonalization with overlap
     ethr =  7.23E-08,  avg # of iterations =  2.0

     negative rho (up, down):  7.836E-01 0.000E+00

     total cpu time spent up to now is   117485.1 secs

     total energy              =  -20246.49421304 Ry
     Harris-Foulkes estimate   =  -20246.49159320 Ry
     estimated scf accuracy    <       0.00141321 Ry

     iteration # 77     ecut=    60.00 Ry     beta= 0.20
     Davidson diagonalization with overlap
     ethr =  7.23E-08,  avg # of iterations =  2.1

     negative rho (up, down):  7.759E-01 0.000E+00

     total cpu time spent up to now is   118499.1 secs

     total energy              =  -20246.49493037 Ry
     Harris-Foulkes estimate   =  -20246.49455592 Ry
     estimated scf accuracy    <       0.00149523 Ry

     iteration # 78     ecut=    60.00 Ry     beta= 0.20
     Davidson diagonalization with overlap
     ethr =  7.23E-08,  avg # of iterations =  1.8

     negative rho (up, down):  7.728E-01 0.000E+00

     total cpu time spent up to now is   119319.0 secs

     total energy              =  -20246.49514524 Ry
     Harris-Foulkes estimate   =  -20246.49496148 Ry
     estimated scf accuracy    <       0.00135658 Ry

     iteration # 79     ecut=    60.00 Ry     beta= 0.20
     Davidson diagonalization with overlap
     ethr =  7.23E-08,  avg # of iterations =  1.0

     negative rho (up, down):  7.869E-01 0.000E+00

     total cpu time spent up to now is   120088.6 secs

     total energy              =  -20246.49404779 Ry
     Harris-Foulkes estimate   =  -20246.49515688 Ry
     estimated scf accuracy    <       0.00134800 Ry

     iteration # 80     ecut=    60.00 Ry     beta= 0.20
     Davidson diagonalization with overlap
     ethr =  7.23E-08,  avg # of iterations =  2.2

     negative rho (up, down):  7.852E-01 0.000E+00

     total cpu time spent up to now is   121088.4 secs

     total energy              =  -20246.49444189 Ry
     Harris-Foulkes estimate   =  -20246.49430293 Ry
     estimated scf accuracy    <       0.00172684 Ry

     iteration # 81     ecut=    60.00 Ry     beta= 0.20
     Davidson diagonalization with overlap
     ethr =  7.23E-08,  avg # of iterations =  1.0

     negative rho (up, down):  7.797E-01 0.000E+00

     total cpu time spent up to now is   121856.2 secs

     total energy              =  -20246.49493397 Ry
     Harris-Foulkes estimate   =  -20246.49445973 Ry
     estimated scf accuracy    <       0.00131115 Ry

     iteration # 82     ecut=    60.00 Ry     beta= 0.20
     Davidson diagonalization with overlap
     ethr =  7.23E-08,  avg # of iterations =  1.0

     negative rho (up, down):  8.000E-01 0.000E+00

     total cpu time spent up to now is   122626.8 secs

     total energy              =  -20246.49226895 Ry
     Harris-Foulkes estimate   =  -20246.49494746 Ry
     estimated scf accuracy    <       0.00131778 Ry

     iteration # 83     ecut=    60.00 Ry     beta= 0.20
     Davidson diagonalization with overlap
     ethr =  7.23E-08,  avg # of iterations =  2.0

     negative rho (up, down):  8.111E-01 0.000E+00

     total cpu time spent up to now is   123625.3 secs

     total energy              =  -20246.49151282 Ry
     Harris-Foulkes estimate   =  -20246.49249218 Ry
     estimated scf accuracy    <       0.00126156 Ry

     iteration # 84     ecut=    60.00 Ry     beta= 0.20
     Davidson diagonalization with overlap
     ethr =  7.02E-08,  avg # of iterations =  2.0

     negative rho (up, down):  8.138E-01 0.000E+00

     total cpu time spent up to now is   124463.4 secs

     total energy              =  -20246.49189397 Ry
     Harris-Foulkes estimate   =  -20246.49156013 Ry
     estimated scf accuracy    <       0.00120479 Ry

     iteration # 85     ecut=    60.00 Ry     beta= 0.20
     Davidson diagonalization with overlap
     ethr =  6.70E-08,  avg # of iterations =  1.0

     negative rho (up, down):  8.010E-01 0.000E+00

     total cpu time spent up to now is   125237.2 secs

     total energy              =  -20246.49273885 Ry
     Harris-Foulkes estimate   =  -20246.49189702 Ry
     estimated scf accuracy    <       0.00121967 Ry

     iteration # 86     ecut=    60.00 Ry     beta= 0.20
     Davidson diagonalization with overlap
     ethr =  6.70E-08,  avg # of iterations =  2.0

     negative rho (up, down):  7.702E-01 0.000E+00

     total cpu time spent up to now is   126093.8 secs

     total energy              =  -20246.49405784 Ry
     Harris-Foulkes estimate   =  -20246.49279369 Ry
     estimated scf accuracy    <       0.00138842 Ry

     iteration # 87     ecut=    60.00 Ry     beta= 0.20
     Davidson diagonalization with overlap
     ethr =  6.70E-08,  avg # of iterations =  3.0

     negative rho (up, down):  7.847E-01 0.000E+00

     total cpu time spent up to now is   127167.4 secs

     total energy              =  -20246.49404667 Ry
     Harris-Foulkes estimate   =  -20246.49429018 Ry
     estimated scf accuracy    <       0.00131481 Ry

     iteration # 88     ecut=    60.00 Ry     beta= 0.20
     Davidson diagonalization with overlap
     ethr =  6.70E-08,  avg # of iterations =  2.0

     negative rho (up, down):  7.875E-01 0.000E+00

     total cpu time spent up to now is   128034.0 secs

     total energy              =  -20246.49401024 Ry
     Harris-Foulkes estimate   =  -20246.49411127 Ry
     estimated scf accuracy    <       0.00181002 Ry

     iteration # 89     ecut=    60.00 Ry     beta= 0.20
     Davidson diagonalization with overlap
     ethr =  6.70E-08,  avg # of iterations =  1.0

     negative rho (up, down):  8.165E-01 0.000E+00

     total cpu time spent up to now is   128803.4 secs

     total energy              =  -20246.49253430 Ry
     Harris-Foulkes estimate   =  -20246.49405632 Ry
     estimated scf accuracy    <       0.00180845 Ry

     iteration # 90     ecut=    60.00 Ry     beta= 0.20
     Davidson diagonalization with overlap
     ethr =  6.70E-08,  avg # of iterations =  2.0

     negative rho (up, down):  8.285E-01 0.000E+00

     total cpu time spent up to now is   129791.3 secs

     total energy              =  -20246.49204106 Ry
     Harris-Foulkes estimate   =  -20246.49268401 Ry
     estimated scf accuracy    <       0.00171920 Ry

     iteration # 91     ecut=    60.00 Ry     beta= 0.20
     Davidson diagonalization with overlap
     ethr =  6.70E-08,  avg # of iterations =  2.0

     negative rho (up, down):  7.718E-01 0.000E+00

     total cpu time spent up to now is   130615.8 secs

     total energy              =  -20246.49540577 Ry
     Harris-Foulkes estimate   =  -20246.49206717 Ry
     estimated scf accuracy    <       0.00154250 Ry

     iteration # 92     ecut=    60.00 Ry     beta= 0.20
     Davidson diagonalization with overlap
     ethr =  6.70E-08,  avg # of iterations =  3.0

     negative rho (up, down):  7.547E-01 0.000E+00

     total cpu time spent up to now is   131753.5 secs

     total energy              =  -20246.49642030 Ry
     Harris-Foulkes estimate   =  -20246.49611280 Ry
     estimated scf accuracy    <       0.00174546 Ry

     iteration # 93     ecut=    60.00 Ry     beta= 0.20
     Davidson diagonalization with overlap
     ethr =  6.70E-08,  avg # of iterations =  2.0

     negative rho (up, down):  7.556E-01 0.000E+00

     total cpu time spent up to now is   132637.6 secs

     total energy              =  -20246.49476421 Ry
     Harris-Foulkes estimate   =  -20246.49648490 Ry
     estimated scf accuracy    <       0.00171938 Ry

     iteration # 94     ecut=    60.00 Ry     beta= 0.20
     Davidson diagonalization with overlap
     ethr =  6.70E-08,  avg # of iterations =  3.0

     negative rho (up, down):  7.408E-01 0.000E+00

     total cpu time spent up to now is   133716.0 secs

     total energy              =  -20246.49566577 Ry
     Harris-Foulkes estimate   =  -20246.49507709 Ry
     estimated scf accuracy    <       0.00117883 Ry

     iteration # 95     ecut=    60.00 Ry     beta= 0.20
     Davidson diagonalization with overlap
     ethr =  6.56E-08,  avg # of iterations =  2.0

     negative rho (up, down):  7.341E-01 0.000E+00

     total cpu time spent up to now is   134636.8 secs

     total energy              =  -20246.49591401 Ry
     Harris-Foulkes estimate   =  -20246.49572751 Ry
     estimated scf accuracy    <       0.00119113 Ry

     iteration # 96     ecut=    60.00 Ry     beta= 0.20
     Davidson diagonalization with overlap
     ethr =  6.56E-08,  avg # of iterations =  2.0

     negative rho (up, down):  7.343E-01 0.000E+00

     total cpu time spent up to now is   135466.5 secs

     total energy              =  -20246.49592079 Ry
     Harris-Foulkes estimate   =  -20246.49592769 Ry
     estimated scf accuracy    <       0.00117532 Ry

     iteration # 97     ecut=    60.00 Ry     beta= 0.20
     Davidson diagonalization with overlap
     ethr =  6.54E-08,  avg # of iterations =  1.0

     negative rho (up, down):  7.148E-01 0.000E+00

     total cpu time spent up to now is   136239.1 secs

     total energy              =  -20246.49670923 Ry
     Harris-Foulkes estimate   =  -20246.49592603 Ry
     estimated scf accuracy    <       0.00116166 Ry

     iteration # 98     ecut=    60.00 Ry     beta= 0.20
     Davidson diagonalization with overlap
     ethr =  6.46E-08,  avg # of iterations =  2.0

     negative rho (up, down):  7.288E-01 0.000E+00

     total cpu time spent up to now is   137236.0 secs

     total energy              =  -20246.49585505 Ry
     Harris-Foulkes estimate   =  -20246.49683810 Ry
     estimated scf accuracy    <       0.00130030 Ry

     iteration # 99     ecut=    60.00 Ry     beta= 0.20
     Davidson diagonalization with overlap
     ethr =  6.46E-08,  avg # of iterations =  2.0

     negative rho (up, down):  7.520E-01 0.000E+00

     total cpu time spent up to now is   138179.9 secs

     total energy              =  -20246.49296373 Ry
     Harris-Foulkes estimate   =  -20246.49592295 Ry
     estimated scf accuracy    <       0.00133493 Ry

     iteration #100     ecut=    60.00 Ry     beta= 0.20
     Davidson diagonalization with overlap
     ethr =  6.46E-08,  avg # of iterations =  2.0

     negative rho (up, down):  7.328E-01 0.000E+00

     total cpu time spent up to now is   139179.0 secs

     total energy              =  -20246.49288884 Ry
     Harris-Foulkes estimate   =  -20246.49330002 Ry
     estimated scf accuracy    <       0.00171852 Ry

     End of self-consistent calculation

     convergence NOT achieved after 100 iterations: stopping

     Writing output data file pwscf.save\

     init_run     :   8480.05s CPU    735.25s WALL (       1 calls)
     electrons    : *********s CPU 156166.12s WALL (       2 calls)
     update_pot   :     60.11s CPU -17968.19s WALL (       1 calls)
     forces       :   3471.36s CPU    234.66s WALL (       1 calls)

     Called by init_run:
     wfcinit      :   8334.17s CPU    688.86s WALL (       1 calls)
     wfcinit:atom :     10.98s CPU     12.88s WALL (      12 calls)
     wfcinit:wfcr :   8067.11s CPU    481.63s WALL (      12 calls)
     potinit      :     26.19s CPU      1.40s WALL (       1 calls)
     hinit0       :     39.97s CPU     36.33s WALL (       1 calls)

     Called by electrons:
     c_bands      : *********s CPU 140383.77s WALL (     157 calls)
     sum_band     : 263459.78s CPU  14453.18s WALL (     157 calls)
     v_of_rho     :   3371.22s CPU    177.19s WALL (     158 calls)
     v_h          :    314.47s CPU     18.55s WALL (     158 calls)
     v_xc         :   3074.02s CPU    159.64s WALL (     159 calls)
     newd         :  11108.47s CPU   1078.15s WALL (     158 calls)
     mix_rho      :   1048.62s CPU     63.63s WALL (     157 calls)

     Called by c_bands:
     init_us_2    :  22928.50s CPU    676.60s WALL (    3792 calls)
     cegterg      : *********s CPU 137912.56s WALL (    1888 calls)

     Called by sum_band:
     sum_band:bec :    754.05s CPU     41.27s WALL (    1884 calls)
     addusdens    :  13503.48s CPU    877.86s WALL (     157 calls)

     Called by *egterg:
     h_psi        : 996342.89s CPU  56393.53s WALL (    7515 calls)
     s_psi        : 249966.59s CPU  14607.40s WALL (    7515 calls)
     g_psi        :   5448.33s CPU    173.86s WALL (    5615 calls)
     cdiaghg      : 165309.47s CPU  24027.42s WALL (    7475 calls)
     cegterg:over : 280687.81s CPU  16640.46s WALL (    5615 calls)
     cegterg:upda : 178851.09s CPU  10455.50s WALL (    5615 calls)
     cegterg:last : 112810.25s CPU   6618.12s WALL (    1900 calls)

     Called by h_psi:
     h_psi:pot    : 991447.03s CPU  55819.54s WALL (    7515 calls)
     h_psi:calbec : 238724.92s CPU  14703.03s WALL (    7515 calls)
     vloc_psi     : 502380.83s CPU  26467.71s WALL (    7515 calls)
     add_vuspsi   : 250340.61s CPU  14648.75s WALL (    7515 calls)

     General routines
     calbec       : 347127.98s CPU  21370.64s WALL (    9447 calls)
     fft          :    524.70s CPU     29.71s WALL (    2065 calls)
     ffts         :     13.72s CPU      0.78s WALL (     315 calls)
     fftw         : 433524.98s CPU  24792.89s WALL (10987834 calls)
     interpolate  :    170.59s CPU     10.30s WALL (     158 calls)
     davcio       :      0.00s CPU    108.89s WALL (      30 calls)

     Parallel routines

     PWSCF        :  28d 9h51m CPU   1d14h41m WALL


   This run was terminated on:  15: 5:44  18Feb2021            

=------------------------------------------------------------------------------=
   JOB DONE.
=------------------------------------------------------------------------------=
