 --invoking executable--
/opt/cfour/2.1/bin/xjoda


   *************************************************************************
         <<<     CCCCCC     CCCCCC   |||     CCCCCC     CCCCCC   >>>
       <<<      CCC        CCC       |||    CCC        CCC         >>>
      <<<      CCC        CCC        |||   CCC        CCC            >>>
    <<<        CCC        CCC        |||   CCC        CCC              >>>
      <<<      CCC        CCC        |||   CCC        CCC            >>>
       <<<      CCC        CCC       |||    CCC        CCC         >>>
         <<<     CCCCCC     CCCCCC   |||     CCCCCC     CCCCCC   >>>
   *************************************************************************

     ****************************************************************
     * CFOUR Coupled-Cluster techniques for Computational Chemistry *
     ****************************************************************


   Department of Chemistry                Institut fuer Physikalische Chemie
   University of Florida                  Universitaet Mainz
   Gainesville, FL 32611, USA             D-55099 Mainz, Germany

   Department of Chemistry                Fakultaet fuer Chemie und Biowiss.
   Johns Hopkins University               Karlsruher Institut fuer Technologie
   Baltimore, MD 21218, USA               D-76131 Karlsruhe, Germany

   Department of Chemistry                Department of Physical Chemistry
   Southern Methodist University          Eotvos Lorand University
   Dallas, TX 75275, USA                  H-1053 Budapest, Hungary


                       Version 2.1

                     node017                                           
                     Fri 22 Aug 2025 02:56:15 PM PDT                   
                     integer*8 version is running

********************************************************************************
*                          Input from ZMAT file                                *
********************************************************************************
Frequencies on FeCO4 (C2v), S0                                                  
FE                                                                              
X 1 RDX                                                                         
C 1 RC1 2 AC1                                                                   
C 1 RC1 2 AC1 3 D180                                                            
C 1 RC2 2 AC2 4 D90                                                             
C 1 RC2 2 AC2 3 D90                                                             
O 1 RO1 2 AO1 4 D180                                                            
O 1 RO1 2 AO1 3 D180                                                            
O 1 RO2 2 AO2 6 D180                                                            
O 1 RO2 2 AO2 5 D180                                                            
                                                                                
RDX  =        1.250000000000000                                                 
RC1  =        1.796531837200652                                                 
AC1  =       62.967084421993704                                                 
D180 =      180.000000000000000                                                 
RC2  =        1.844668964555377                                                 
AC2  =       94.781323874756225                                                 
D90  =       90.000000000000000                                                 
RO1  =        2.954078059804977                                                 
AO1  =       60.109806498876146                                                 
RO2  =        2.998901217676232                                                 
AO2  =       95.400825489038212                                                 
                                                                                
*ACES2(CALC = CCSD(T)                                                           
      BASIS = SPECIAL                                                           
FROZEN_CORE = ON                                                                
        VIB = ANALYTIC                                                          
   SCF_CONV = 10                                                                
    CC_CONV = 8                                                                 
 LINEQ_CONV = 8                                                                 
   SCF_MAXCYC = 500                                                             
    CC_MAXCYC = 500                                                             
 LINEQ_MAXCYC = 500                                                             
  CPHF_MAXCYC = 500                                                             
       MEMORY = 32                                                              
     MEM_UNIT = GB)                                                             
                                                                                
Fe:cc-pVDZ                                                                      
C:cc-pVDZ                                                                       
C:cc-pVDZ                                                                       
C:cc-pVDZ                                                                       
C:cc-pVDZ                                                                       
O:cc-pVDZ                                                                       
O:cc-pVDZ                                                                       
O:cc-pVDZ                                                                       
O:cc-pVDZ                                                                       
                                                                                
********************************************************************************
    -------------------------------------------------------------------
                    CFOUR Control Parameters 
    -------------------------------------------------------------------
        External           Internal           Value            Units
          Name               Name
    -------------------------------------------------------------------
       ABCDTYPE             IABCDT         STANDARD    [  0]    ***   
       ANHARMONIC           IANHAR         OFF         [  0]    ***   
       ANH_ALGORIT          IANALG         STANDARD    [  0]    ***   
       ANH_DERIVAT          IANDER         SECOND      [  1]    ***   
       ANH_MODE             ANHMOD         VIBRATION   [  0]    ***   
       ANH_STEPSIZ          ICUBST             50000          x 10-6  
       ANH_SYMMETR          IANHSM         ABELIAN     [  0]    ***   
       AO_LADDERS           IAOLAD         SINGLEPASS  [  1]    ***   
       AV_SCF               IAVSCF         OFF         [  0]    ***   
       BASIS                IBASIS         SPECIAL     [  0]    ***   
       BOTHVECTORS          BOTHVC         OFF         [  0]    ***   
       BOX_POTENT           IPIAB          OFF         [  0]    ***   
       BREIT                IBREIT         OFF         [  0]    ***   
       BRUCK_CONV           IBRTOL          10D-  4             ***   
       BRUECKNER            IBRKNR         OFF         [  0]    ***   
       BUFFERSIZE           IBUFFS              4096            ***   
       CACHE_RECS           ICHREC             10               ***   
       CALCLEVEL            ICLLVL         CCSD(T)     [ 22]    ***   
       CCORBOPT             ICCORB         OFF         [  0]  x 0.01  
       CC_CONV              ICCCNV          10D-  8             ***   
       CC_EXPORDER          ICCEOR              5               ***   
       CC_EXTRAPOL          ICCEXT         DIIS        [  1]    ***   
       CC_GUESS             ICCGES         MP2         [  0]    ***   
       CC_MAXCYC            ICCCYC            500              cycles 
       CC_PROGRAM           ICCPRO         VCC         [  0]    ***   
       CHARGE               ICHRGE              0               ***   
       CHOLESKY             ICHOLE         OFF         [  0]    ***   
       CIS_CONV             ICISTL              5               ***   
       COMM_SIZE            IPSIZE            ***               ***   
       CONSTANT             ICONST         OLD         [  1]    ***   
       CONTINUUM            ICONTU         NONE        [  0]    ***   
       CONTRACTION          ICNTYP         GENERAL     [  1]    ***   
       COORDINATES          ICOORD         INTERNAL    [  0]    ***   
       CPHF_CONVER          ICPHFT          10D- 16             ***   
       CPHF_MAXCYC          ICPHFC            500              cycles 
       CUBIC                ICUBIC         OFF         [  0]    ***   
       CURVILINEAR          ICURVY         OFF         [  0]    ***   
       DBOC                 IDBOC          OFF         [  0]    ***   
       DCT                  IDCT           OFF         [  0]    ***   
       DERIV_LEV            IDRLVL         SECOND      [  2]    ***   
       DEVMEM_SIZE          IDVMEM         *********           MByte  
       DIAG_MRCC            IEOMST          10D-  0             ***   
       DIFF_TYPE            IDIFTY         RELAXED     [  0]    ***   
       DIRECT               IDIRCT         OFF         [  0]    ***   
       DROPMO               IDRPMO      NONE         
       ECP                  IECP           OFF         [  0]    ***   
       EIGENVECTOR          IVEC                1               ***   
       EL_ANHARM            IELANH         OFF         [  0]    ***   
       EOMFOLLOW            IEOMSR         ENERGY      [  0]    ***   
       EOMIP                IEOMIP         OFF         [  0]    ***   
       EOMLEVEL             HBARFM         SAME        [  0]    ***   
       EOM_MRCC             IMRCCE         NEW         [  1]    ***   
       EOM_NONIT            EOMNON         OFF         [  0]    ***   
       EOM_NSING            IEOMSI          10D-  0             ***   
       EOM_NSTATES          IMRCCD         DAVIDSON    [  0]    ***   
       EOM_NTRIP            IEOMTR          10D-  0             ***   
       EOM_ORDER            IEXORD         ENERGY      [  0]    ***   
       EOM_PROPSTA          IEOMST              0               ***   
       ESTATE_CONV          IEXTOL          10D-  5             ***   
       ESTATE_DIAG          IEXDIG         ITERATIVE   [  0]    ***   
       ESTATE_LOCK          IESLOC         ON          [  1]    ***   
       ESTATE_MAXC          IEXMXC             40               ***   
       ESTATE_PROP          IEXPRP         OFF         [  0]    ***   
       EVAL_HESS            IRECAL              0            # of cyc.
       EXCITATION           IEXCIT              0               ***   
       EXCITE               IEXCIT         NONE        [  0]    ***   
       EXTERN_POT           IEXPOT         OFF         [  0]    ***   
       FCGRADNEW            IFCGNW         OFF         [  0]    ***   
       FC_FIELD             IFINFC              0             x 10-6  
       FD_CALTYPE           IFDCAL         GRADONLY    [  0]    ***   
       FD_PROJECT           IFDPRJ         OFF         [  1]    ***   
       FD_STEPSIZE          IDISFD              0            10-4 bohr
       FD_USEGROUP          IFDGRP         FULL        [  0]    ***   
       FILE_RECSIZ          IFLREC              4096           words  
       FINITE_PERT          IFIPER              0             x 10-6  
       FIXGEOM              IFIXGM         OFF         [  0]    ***   
       FOCK                 IFOCK          AO          [  1]    ***   
       FREQ_ALGORI          IVIALG         STANDARD    [  0]    ***   
       FROZEN_CORE          IFROCO         ON          [  1]    ***   
       GAMMA_ABCD           IGABCD         STORE       [  0]    ***   
       GAMMA_ABCI           IGABCI         STORE       [  0]    ***   
       GENBAS_1             IGNBS1              0               ***   
       GENBAS_2             IGNBS2              0               ***   
       GENBAS_3             IGNBS3              0               ***   
       GENBAS_4             IGNBS4              0               ***   
       GEO_CONV             ICONTL              5              H/bohr 
       GEO_MAXCYC           IOPTCY             50               ***   
       GEO_MAXSTEP          IMXSTP            300            millibohr
       GEO_METHOD           INR            SINGLE_POINT[  5]    ***   
       GIAO                 IGIAO          OFF         [  1]    ***   
       GIMIC                IGIMIC         OFF         [  0]    ***   
       GRID                 IGRID          OFF         [  0]    ***   
       GRID_ALGO            IGALGO         SERIAL      [  0]    ***   
       GUESS                IGUESS         MOREAD      [  0]    ***   
       HBAR                 IHBAR          OFF         [  0]    ***   
       HESS_TYPE            IHESTP         SCF         [  0]    ***   
       HF2_FILE             IHF2Fl         USE         [  1]    ***   
       HFSTABILITY          ISTABL         OFF         [  0]    ***   
       INCORE               INCORE         OFF         [  0]    ***   
       INPUT_MRCC           IMRCC          ON          [  1]    ***   
       INTEGRALS            INTTYP         VMOL        [  1]    ***   
       JODA_PRINT           IJPRNT              0               ***   
       KEYWORD_OUT          IDMPKW         NO          [  0]    ***   
       LINDEP_TOL           ILINDP              8               ***   
       LINEQ_CONV           IZTACN          10D-  8           cycles  
       LINEQ_EXPOR          ILMAXD              5               ***   
       LINEQ_MAXCY          ILMAXC            500               ***   
       LINEQ_TYPE           ILTYPE         DIIS        [  1]    ***   
       LOCK_ORBOCC          ILOCOC         OFF         [  0]    ***   
       MEMORY_SIZE          IMEMSZ         *********           words  
       MEM_UNIT             IMEMU          GB          [  3]    ***   
       MRCC                 IMRCCC         OFF         [  0]    ***   
       MULTIPLICTY          IMULTP              1               ***   
       NACOUPLING           IVCOUP         OFF         [  0]    ***   
       NEGEVAL              IDIE           ABORT       [  0]    ***   
       NEWNORM              INEWNO         OFF         [  0]    ***   
       NON-HF               INONHF         OFF         [  0]    ***   
       NTOP_TAMP            ITOPT2             15               ***   
       NUC_MODEL            INUCMO         POINT       [  0]    ***   
       OCCUPATION           IOCCU   ESTIMATED BY SCF 
       OPEN-SHELL           IOPEN          SPIN-ORBITAL[  0]    ***   
       OPTVIB               IOPTVB         OFF         [  0]    ***   
       ORBITALS             IORBTP         STANDARD    [  0]    ***   
       PARALLEL             IPARAL         ON          [  1]    ***   
       PARA_INT             IPINTS         ON          [  1]    ***   
       PARA_PRINT           IPPRIN              0               ***   
       PERT_ORB             IPTORB         CANONICAL   [  1]    ***   
       POINTS               IGRDFD              0               ***   
       PRINT                IPRNT               0               ***   
       PROPS                IPROPS         OFF         [  0]    ***   
       PROP_INTEGR          IINTYP         INTERNAL    [  0]    ***   
       PSI                  IPSI           OFF         [  0]    ***   
       QC_ALG               IQCALG         FLM         [  0]    ***   
       QC_LINALG            IQCLIN         TRIDIAG     [  2]    ***   
       QC_MAXCYC            IQCMAX          10D-100           cycles  
       QC_MAXSCFCY          IQCMSC          10D- 15           cycles  
       QC_RTRUST            IQCRTR          10D-  0           x 10-3  
       QC_SKIPSCF           IQCSKI         OFF         [  0]    ***   
       QC_START             IQCSTA          10D-  1             ***   
       QRHFGUESS            IQGUES         OFF         [  0]    ***   
       QUARTIC              IQUART         OFF         [  0]    ***   
       RAMAN_INT            IRAMIN         OFF         [  0]    ***   
       RAMAN_ORB            IRAMRE         UNRELAXED   [  0]    ***   
       RDO                  IRDOFM         ON          [  1]    ***   
       REDUCE_REPR          REDREP         Ir          [  0]    ***   
       REFERENCE            IREFNC         RHF         [  0]    ***   
       RELATIVIST           IRELAT         OFF         [  0]    ***   
       RELAX_DENS           IRDENS         ON          [  1]    ***   
       RESET_FLAGS          IRESET         OFF         [  0]    ***   
       RESTART_CC           ICCRES         OFF         [  0]    ***   
       ROT_EVEC             ROTVEC              0               ***   
       SAVE_INTS            ISVINT         OFF         [  0]    ***   
       SCALE_ON             ISTCRT              0               ***   
       SCF_CONV             ISCFCV          10D- 10             ***   
       SCF_DAMPING          IDAMP               0             x 10-3  
       SCF_EXPORDE          IRPPOR              6               ***   
       SCF_EXPSTAR          IRPPLS              8               ***   
       SCF_EXTRAPO          IRPP           ON          [  1]    ***   
       SCF_MAXCYC           ISCFCY            500              cycles 
       SCF_NOSTOP           ISCFST         OFF         [  0]    ***   
       SCF_PRINT            ISCFPR              0               ***   
       SCF_PROG             ISCFPR         SCF         [  0]    ***   
       SD_FIELD             IFINSD              0             x 10-6  
       SOPERT               IPERSO         OFF         [  0]    ***   
       SPHERICAL            IDFGHI         ON          [  1]    ***   
       SPINORBIT            ISOCAL         OFF         [  0]    ***   
       SPINROTATIO          ISRCON         OFF         [  0]    ***   
       SPIN_FLIP            ISPFLP         OFF         [  0]    ***   
       SPIN_ORBIT           ISPORB         OFF         [  0]    ***   
       SPIN_SCAL            ISCSMP         OFF         [  0]    ***   
       STEEPSCALE           ISTPSC              1000          x 10-3  
       SUBGROUP             ISUBGP         DEFAULT     [  0]    ***   
       SUBGRPAXIS           ISBXYZ         X           [  0]    ***   
       SYMMETRY             ISYM           ON          [  0]    ***   
       SYM_CHECK            ISYMCK         OVERRIDE    [  1]    ***   
       T3_EXTRAPOL          IT3EXT         OFF         [  0]    ***   
       T4_EXTRAPOL          IT4EXP         OFF         [  0]    ***   
       TAMP_SUM             IEVERY              5               ***   
       TESTSUITE            ITESTS         OFF         [  0]    ***   
       THERMOCH             ITHERM         ON          [  1]    ***   
       TOL_CHOLESK          ITOLCH          10D-  4             ***   
       TRANGRAD             IRESRM         OFF         [  0]    ***   
       TRANS_INV            ITRAIN         USE         [  0]    ***   
       TREAT_PERT           ITREAT         SIMULTANEOUS[  0]    ***   
       TRIP_ALGORI          ITRALG         NORMAL      [  0]    ***   
       UIJ_THRESHO          IUIJTH              1               ***   
       UNITS                IUNITS         ANGSTROM    [  0]    ***   
       UNOS                 IUNOS          OFF         [  0]    ***   
       UPDATE_HESS          IHUPDT         ON          [  1]    ***   
       VIBPHASE             ISETPH         STANDARD    [  0]    ***   
       VIBRATION            IVIB           ANALYTIC    [  1]    ***   
       VIB_ALGORIT          IGEALG         STANDARD    [  0]    ***   
       VNATORB              IVNORB         OFF         [  0]    ***   
       VTRAN                IVTRAN         FULL/PARTIAL[  0]    ***   
       XFIELD               IXEFLD              0             x 10-6  
       XFORM_TOL            IXFTOL          10D- 11             ***   
       YFIELD               IYEFLD              0             x 10-6  
       ZFIELD               IZEFLD              0             x 10-6  
       ZSCALE_EXP           IZEXPS         OFF         [  0]    ***   
    -------------------------------------------------------------------
  10 entries found in Z-matrix 
   Job Title : Frequencies on FeCO4 (C2v), S0                                                  
   There are 11 unique internal coordinates.
   Of these,  0 will be optimized.
   User supplied Z-matrix: 
--------------------------------------------------------------------------------
       SYMBOL    BOND      LENGTH    ANGLE     ANGLE     DIHED     ANGLE
                  TO      (ANGST)    WRT      (DEG)      WRT      (DEG)
--------------------------------------------------------------------------------
        FE   
        X          1         RDX  
        C          1         RC1        2        AC1  
        C          1         RC1        2        AC1        3        D180 
        C          1         RC2        2        AC2        4        D90  
        C          1         RC2        2        AC2        3        D90  
        O          1         RO1        2        AO1        4        D180 
        O          1         RO1        2        AO1        3        D180 
        O          1         RO2        2        AO2        6        D180 
        O          1         RO2        2        AO2        5        D180 
                  *Initial values for internal coordinates* 
                      Name             Value
                        RDX             1.2500000000
                        RC1             1.7965318372
                        AC1            62.9670844220
                        D180          180.0000000000
                        RC2             1.8446689646
                        AC2            94.7813238748
                        D90            90.0000000000
                        RO1             2.9540780598
                        AO1            60.1098064989
                        RO2             2.9989012177
                        AO2            95.4008254890
--------------------------------------------------------------------------------
  filter applied 
  filter applied 
   Rotational constants (in cm-1): 
          0.0264415902             0.0385452140             0.0492349292
   Rotational constants (in MHz): 
        792.6990441052          1155.5566056403          1476.0262509093
********************************************************************************
   The full molecular point group is C2v .
   The largest Abelian subgroup of the full molecular point group is C2v .
   The computational point group is C2v .
********************************************************************************
--------------------------------------------------------------------------------
   Analysis of internal coordinates specified by Z-matrix 
--------------------------------------------------------------------------------
   *The nuclear repulsion energy is  580.683711901688412 a.u.
   *There are   8 degrees of freedom within the tot. symm. molecular subspace.
   *Z-matrix requests optimization of   0 coordinates.
   *The optimization is constrained.
   *The following   8 parameters can have non-zero 
    derivatives within the totally symmetric subspace:
             AO1  [17]  RC2  [10]  RC1  [ 4]  AC2  [11]  AC1  [ 5]  AO2  [20]
             RO2  [19]  RO1  [16]
   *The following   0 parameters are to be optimized:

   *The following coordinates must be varied in an  unconstrained optimization.
             AO1  [17]  RC2  [10]  RC1  [ 4]  AC2  [11]  AC1  [ 5]  AO2  [20]
             RO2  [19]  RO1  [16]
--------------------------------------------------------------------------------


 ----------------------------------------------------------------
         Coordinates used in calculation (QCOMP) 
 ----------------------------------------------------------------
 Z-matrix   Atomic            Coordinates (in bohr)
  Symbol    Number           X              Y              Z
 ----------------------------------------------------------------
     FE       26         0.00000000     0.00000000    -0.60738519
     X         0         0.00000000     0.00000000     1.75477296
     C         6        -0.00000000    -3.02404010     0.93562913
     C         6         0.00000000     3.02404010     0.93562913
     C         6         3.47378915    -0.00000000    -0.89794715
     C         6        -3.47378915     0.00000000    -0.89794715
     O         8        -0.00000000    -4.83984033     2.17454427
     O         8         0.00000000     4.83984033     2.17454427
     O         8         5.64194468    -0.00000000    -1.14078800
     O         8        -5.64194468     0.00000000    -1.14078800
 ----------------------------------------------------------------

   Interatomic distance matrix (Angstroms) 

                 FE            X             C             C             C    
                [ 1]        [ 2]        [ 3]        [ 4]        [ 5]
  FE   [ 1]     0.00000
  X    [ 2]     1.25000     0.00000
  C    [ 3]     1.79653     1.65792     0.00000
  C    [ 4]     1.79653     1.65792     3.20051     0.00000
  C    [ 5]     1.84467     2.31294     2.62325     2.62325     0.00000
  C    [ 6]     1.84467     2.31294     2.62325     2.62325     3.67650
  O    [ 7]     2.95408     2.57075     1.16323     4.21271     3.54712
  O    [ 8]     2.95408     2.57075     4.21271     1.16323     3.54712
  O    [ 9]     2.99890     3.35583     3.56116     3.56116     1.15451
  O    [10]     2.99890     3.35583     3.56116     3.56116     4.82555

                 C             O             O             O             O    
                [ 6]        [ 7]        [ 8]        [ 9]        [10]
  C    [ 6]     0.00000
  O    [ 7]     3.54712     0.00000
  O    [ 8]     3.54712     5.12227     0.00000
  O    [ 9]     4.82555     4.30709     4.30709     0.00000
  O    [10]     1.15451     4.30709     4.30709     5.97118     0.00000
 rotcon2
   Rotational constants (in cm-1): 
          0.0492349292             0.0385452140             0.0264415902
   Rotational constants (in MHz): 
       1476.0262509093          1155.5566056403           792.6990441052
  ECPDATA file not present.   Using default ECPDATA. 
  There are  17 frozen-core orbitals.
  There are  155 basis functions.
 @CHECKOUT-I, Total execution time (CPU/WALL):        1.19/       1.28 seconds.
--executable xjoda finished with status     0 in        1.32 seconds (walltime).
 --invoking executable--
/opt/cfour/2.1/bin/xvmol
 SERIAL VERSION OF MOLECULE STARTED
********************************************************************************
                    INPUT FROM MOL FILE
********************************************************************************
INTGRL        1    0    1    0    0    0    0    0    0                         
         *** CFOUR Program System (Release V0.1) ***                            
Frequencies on FeCO4 (C2v), S0                                                  
    5    2 X  Y       0.10E-08              0    0                              
   9999.00      3.00                                                            
         26.00000000    1    4    1    1    1    1                              
FE#1   0.000000000000000   0.000000000000000  -0.607385193372269                
   20    6                                                                      
   4316265.0000000000        8.0488029999999998E-006  -4.1559539999999997E-006  
   646342.40000000002        6.2583059999999998E-005  -3.2314010000000003E-005  
   147089.70000000001        3.2902389999999999E-004  -1.6995250000000000E-004  
   41661.519999999997        1.3873550000000001E-003  -7.1713690000000004E-004  
   13590.770000000000        5.0232560000000002E-003  -2.6036250000000000E-003  
   4905.7500000000000        1.6101399999999998E-002  -8.3991090000000001E-003  
   1912.7460000000001        4.5900339999999998E-002  -2.4341089999999999E-002  
   792.60429999999997       0.11361540000000001       -6.2519480000000002E-002  
   344.80650000000003       0.22838690000000000      -0.13659289999999999       
   155.89990000000000       0.32211590000000001      -0.23127070000000000       
   72.230909999999994       0.23836610000000000      -0.23837340000000001       
   32.725059999999999        7.4046669999999995E-002   3.1238370000000001E-002  
   15.667619999999999        9.2141970000000004E-002  0.50868179999999996      -
   7.5034830000000001        9.3397900000000006E-002  0.49876949999999998      -
   3.3122229999999999        1.5739650000000001E-002   9.0335520000000002E-002  
   1.5584709999999999       -4.1866819999999998E-004  -6.0053370000000003E-003  
  0.68391400000000002        5.3763179999999999E-005   2.3124539999999999E-004  
  0.14675700000000000       -3.8166539999999997E-005  -5.6436799999999999E-004  
   7.0583000000000007E-002   4.3196030000000000E-005   4.9922599999999997E-004  
   3.1448999999999998E-002  -3.4010190000000000E-006  -1.0152930000000000E-004  
   16    5                                                                      
   17745.689999999999        4.1000000000000000E-005  -1.5000000000000000E-005  
   4200.7209999999995        3.6900000000000002E-004  -1.2999999999999999E-004  
   1364.4290000000001        2.1289999999999998E-003  -7.5100000000000004E-004  
   522.08060000000000        9.3690000000000006E-003  -3.3289999999999999E-003  
   221.45949999999999        3.3097000000000001E-002  -1.1912000000000001E-002  
   100.90960000000000        9.4431000000000001E-002  -3.4932999999999999E-002  
   48.401150000000001       0.20807700000000001       -7.9989000000000005E-002  
   23.985360000000000       0.33233299999999999      -0.13463600000000001       
   12.182499999999999       0.33298699999999998      -0.13859800000000000       
   6.2422979999999999       0.15684300000000001        3.0277999999999999E-002  
   3.1109439999999999        2.1548999999999999E-002  0.33321600000000001      -
   1.5099579999999999       -2.0950000000000001E-003  0.45615299999999998      -
  0.71084499999999995       -1.7390000000000001E-003  0.28505100000000000      -
  0.27318999999999999       -2.9999999999999997E-004   4.6143999999999998E-002  
  0.10423300000000001        2.9000000000000000E-005  -3.2490000000000002E-003  
   3.8290999999999999E-002  -1.1000000000000000E-005   1.3569999999999999E-003  
    8    3                                                                      
   113.34399999999999        3.5300000000000002E-003  -3.8899999999999998E-003  
   33.641399999999997        2.5784000000000001E-002  -2.8441999999999999E-002  
   12.331000000000000        9.9118999999999999E-002 -0.11242900000000000       
   4.9947800000000004       0.23907300000000001      -0.27425699999999997       
   2.0728000000000000       0.35719899999999999      -0.31554599999999999       
  0.83075299999999996       0.36218800000000001        5.7109000000000000E-002  
  0.30917800000000001       0.23646100000000000       0.56360399999999999       
  0.10013000000000000        6.0117999999999998E-002  0.38463700000000001       
    2    1                                                                      
   3.2242999999999999       0.42224899999999999                                 
  0.77580000000000005       0.77146800000000004                                 
          6.00000000    1    3    1    1    1                                   
C #2  -0.000000000000001  -3.024040096938459   0.935629126047465                
    9    3                                                                      
   6665.0000000000000        6.9200000000000002E-004  -1.4600000000000000E-004  
   1000.0000000000000        5.3290000000000004E-003  -1.1540000000000001E-003  
   228.00000000000000        2.7077000000000000E-002  -5.7250000000000001E-003  
   64.709999999999994       0.10171800000000000       -2.3311999999999999E-002  
   21.059999999999999       0.27473999999999998       -6.3954999999999998E-002  
   7.4950000000000001       0.44856400000000002      -0.14998100000000000       
   2.7970000000000002       0.28507399999999999      -0.12726199999999999       
  0.52149999999999996        1.5204000000000001E-002  0.54452900000000004       
  0.15959999999999999       -3.1909999999999998E-003  0.58049600000000001       
    4    2                                                                      
   9.4390000000000001        3.8108999999999997E-002   0.0000000000000000       
   2.0019999999999998       0.20948000000000000        0.0000000000000000       
  0.54559999999999997       0.50855700000000004        0.0000000000000000       
  0.15170000000000000       0.46884199999999998        1.0000000000000000       
    1    1                                                                      
  0.55000000000000004        1.0000000000000000                                 
          6.00000000    1    3    1    1    1                                   
C #3   3.473789148646722  -0.000000000000001  -0.897947149207981                
    9    3                                                                      
   6665.0000000000000        6.9200000000000002E-004  -1.4600000000000000E-004  
   1000.0000000000000        5.3290000000000004E-003  -1.1540000000000001E-003  
   228.00000000000000        2.7077000000000000E-002  -5.7250000000000001E-003  
   64.709999999999994       0.10171800000000000       -2.3311999999999999E-002  
   21.059999999999999       0.27473999999999998       -6.3954999999999998E-002  
   7.4950000000000001       0.44856400000000002      -0.14998100000000000       
   2.7970000000000002       0.28507399999999999      -0.12726199999999999       
  0.52149999999999996        1.5204000000000001E-002  0.54452900000000004       
  0.15959999999999999       -3.1909999999999998E-003  0.58049600000000001       
    4    2                                                                      
   9.4390000000000001        3.8108999999999997E-002   0.0000000000000000       
   2.0019999999999998       0.20948000000000000        0.0000000000000000       
  0.54559999999999997       0.50855700000000004        0.0000000000000000       
  0.15170000000000000       0.46884199999999998        1.0000000000000000       
    1    1                                                                      
  0.55000000000000004        1.0000000000000000                                 
          8.00000000    1    3    1    1    1                                   
O #4  -0.000000000000001  -4.839840325036373   2.174544266945283                
    9    3                                                                      
   11720.000000000000        7.1000000000000002E-004  -1.6000000000000001E-004  

Running with 32 threads/proc

   1759.0000000000000        5.4700000000000000E-003  -1.2630000000000000E-003  
   400.80000000000001        2.7837000000000001E-002  -6.2670000000000000E-003  
   113.70000000000000       0.10480000000000000       -2.5715999999999999E-002  
   37.030000000000001       0.28306199999999998       -7.0924000000000001E-002  
   13.270000000000000       0.44871899999999998      -0.16541100000000000       
   5.0250000000000004       0.27095200000000003      -0.11695500000000000       
   1.0129999999999999        1.5458000000000000E-002  0.55736799999999997       
  0.30230000000000001       -2.5850000000000001E-003  0.57275900000000002       
    4    2                                                                      
   17.699999999999999        4.3018000000000001E-002   0.0000000000000000       
   3.8540000000000001       0.22891300000000001        0.0000000000000000       
   1.0460000000000000       0.50872799999999996        0.0000000000000000       
  0.27529999999999999       0.46053100000000002        1.0000000000000000       
    1    1                                                                      
   1.1850000000000001        1.0000000000000000                                 
          8.00000000    1    3    1    1    1                                   
O #5   5.641944675049642  -0.000000000000001  -1.140787999912020                
    9    3                                                                      
   11720.000000000000        7.1000000000000002E-004  -1.6000000000000001E-004  
   1759.0000000000000        5.4700000000000000E-003  -1.2630000000000000E-003  
   400.80000000000001        2.7837000000000001E-002  -6.2670000000000000E-003  
   113.70000000000000       0.10480000000000000       -2.5715999999999999E-002  
   37.030000000000001       0.28306199999999998       -7.0924000000000001E-002  
   13.270000000000000       0.44871899999999998      -0.16541100000000000       
   5.0250000000000004       0.27095200000000003      -0.11695500000000000       
   1.0129999999999999        1.5458000000000000E-002  0.55736799999999997       
  0.30230000000000001       -2.5850000000000001E-003  0.57275900000000002       
    4    2                                                                      
   17.699999999999999        4.3018000000000001E-002   0.0000000000000000       
   3.8540000000000001       0.22891300000000001        0.0000000000000000       
   1.0460000000000000       0.50872799999999996        0.0000000000000000       
  0.27529999999999999       0.46053100000000002        1.0000000000000000       
    1    1                                                                      
   1.1850000000000001        1.0000000000000000                                 
FINISH                                                                          

********************************************************************************
 ONE- AND TWO-ELECTRON INTEGRALS OVER SYMMETRY-ADAPTED AOS ARE CALCULATED.

  SPHERICAL HARMONICS ARE USED.
  
  INTEGRALS LESS THAN  0.10E-13 ARE NEGLECTED.

  NUCLEAR REPULSION ENERGY :  580.6837119017 A.U.
  @MOLECU-I, ONE ELECTRON INTEGRALS (CPU/WALL):        0.62/       0.05 SECONDS.
  @TWOEL-I,    2091586 INTEGRALS OF SYMMETRY TYPE  I I I I
  @TWOEL-I,    7180752 INTEGRALS OF SYMMETRY TYPE  I J I J
  @TWOEL-I,    3768299 INTEGRALS OF SYMMETRY TYPE  I I J J
  @TWOEL-I,    4984802 INTEGRALS OF SYMMETRY TYPE  I J K L
  @TWOEL-I, TOTAL NUMBER OF 2-E INTEGRALS   18025439.
  @MOLECU-I, TWO ELECTRON INTEGRALS (CPU/WALL):       37.62/      10.75 SECONDS.
 @CHECKOUT-I, Total execution time (CPU/WALL):       38.29/      10.81 seconds.
--executable xvmol finished with status     0 in       10.84 seconds (walltime).
 --invoking executable--
/opt/cfour/2.1/bin/xvmol2ja
 @GETMEM-I,  Allocated   30517 MB of main memory.
 @CHECKOUT-I, Total execution time (CPU/WALL):        0.16/       0.01 seconds.
--executable xvmol2ja finished with status     0 in        0.04 seconds (walltime).
 --invoking executable--
/opt/cfour/2.1/bin/xvscf
  There are  155 functions in the AO basis.

  There are 4 irreducible representations.

       Irrep        # of functions
         1                 59
         2                 38
         3                 38
         4                 20


  Parameters for SCF calculation: 
        SCF reference function:  RHF  
  Maximum number of iterations:  500
     Full symmetry point group: C2v 
     Computational point group: C2v 
        Initial density matrix: MOREAD                 
     SCF convergence tolerance: 10**(-10)
  DIIS convergence acceleration:  ON
          Latest start for DIIS:   8
                     DIIS order:   6

  Memory information:     979721 words required.
  Fock matrices are constructed from AO integral file.
 @GETMEM-I,  Allocated       7 MB of main memory.
  Initialization and symmetry analysis required      0.011 seconds.

  @INITGES-I, Occupancies from core Hamiltonian:

          Alpha population by irrep:  19    9   10    3
           Beta population by irrep:  19    9   10    3


 total no. of electrons in initial guess :   0.0000000000000000     
  --------------------------------------------------------------------
  Iteration         Total Energy            Largest Density Difference
  --------------------------------------------------------------------
       0           580.683711901688525              0.0000000000D+00
   current occupation vector 
    19  9 10  3
    19  9 10  3
       1         -1329.916048674225294              0.9237571673D+03
   current occupation vector 
    19  9 10  3
    19  9 10  3
       2         -1505.545539973699306              0.9062215141D+03
   current occupation vector 
    17 10 10  4
    17 10 10  4
       3         -1338.519970187061062              0.6243054022D+03
   current occupation vector 
    19  9 10  3
    19  9 10  3
       4         -1505.396422513434572              0.6243753428D+03
   current occupation vector 
    17 10 10  4
    17 10 10  4
       5         -1338.521757376070582              0.6241636026D+03
   current occupation vector 
    19  9 10  3
    19  9 10  3
       6         -1505.396413578852389              0.6241655352D+03
   current occupation vector 
    17 10 10  4
    17 10 10  4
       7         -1338.521745751404524              0.6241638758D+03
   current occupation vector 
    19  9 10  3
    19  9 10  3
       8         -1505.396414900121727              0.6241639040D+03
   current occupation vector 
    17 10 10  4
    17 10 10  4
       9         -1688.533654934083188              0.9968663733D+01
   current occupation vector 
    18 10 10  3
    18 10 10  3
      10         -1663.422122348830271              0.4998941971D+02
   current occupation vector 
    19  9 10  3
    19  9 10  3
      11         -1698.305665817771569              0.3331122036D+02
   current occupation vector 
    19 10 10  2
    19 10 10  2
      12         -1703.260113284276031              0.1568113135D+02
   current occupation vector 
    19 10 10  2
    19 10 10  2
      13         -1708.633950997523698              0.3352710655D+01
   current occupation vector 
    18 10 10  3
    18 10 10  3
      14         -1706.503356205193086              0.2751920698D+01
   current occupation vector 
    18 10 10  3
    18 10 10  3
      15         -1712.833465296383110              0.5000419142D+01
   current occupation vector 
    18 10 10  3
    18 10 10  3
      16         -1712.805491696051376              0.2545424165D+01
   current occupation vector 
    18 10 10  3
    18 10 10  3
      17         -1713.184380728068390              0.1346797449D+01
   current occupation vector 
    18 10 10  3
    18 10 10  3
      18         -1713.197430854455888              0.9627148862D-01
   current occupation vector 
    18 10 10  3
    18 10 10  3
      19         -1713.201541989305497              0.4864224777D-01
   current occupation vector 
    18 10 10  3
    18 10 10  3
      20         -1713.202994907489483              0.5737535111D-01
   current occupation vector 
    18 10 10  3
    18 10 10  3
      21         -1713.203860863892714              0.6539996840D-01
   current occupation vector 
    18 10 10  3
    18 10 10  3
      22         -1713.204381454226677              0.3340573534D-01
   current occupation vector 
    18 10 10  3
    18 10 10  3
      23         -1713.205016039753900              0.5236500751D-01
   current occupation vector 
    18 10 10  3
    18 10 10  3
      24         -1713.205242479140452              0.4119344335D-01
   current occupation vector 
    18 10 10  3
    18 10 10  3
      25         -1713.205343962555162              0.1111115056D-01
   current occupation vector 
    18 10 10  3
    18 10 10  3
      26         -1713.205391629210681              0.7987617001D-02
   current occupation vector 
    18 10 10  3
    18 10 10  3
      27         -1713.205413498563303              0.1753838014D-01
   current occupation vector 
    18 10 10  3
    18 10 10  3
      28         -1713.205416190990945              0.8664977891D-02
   current occupation vector 
    18 10 10  3
    18 10 10  3
      29         -1713.205417345537171              0.6714471060D-02
   current occupation vector 
    18 10 10  3
    18 10 10  3
      30         -1713.205418131685747              0.6555597955D-02
   current occupation vector 
    18 10 10  3
    18 10 10  3
      31         -1713.205418565769833              0.4936956428D-02
   current occupation vector 
    18 10 10  3
    18 10 10  3
      32         -1713.205419026782238              0.6067607955D-02
   current occupation vector 
    18 10 10  3
    18 10 10  3
      33         -1713.205419313408129              0.5675528133D-02
   current occupation vector 
    18 10 10  3
    18 10 10  3
      34         -1713.205419455294759              0.2855852350D-02
   current occupation vector 
    18 10 10  3
    18 10 10  3
      35         -1713.205419543181961              0.1869040686D-02
   current occupation vector 
    18 10 10  3
    18 10 10  3
      36         -1713.205419613850154              0.2920366145D-03
   current occupation vector 
    18 10 10  3
    18 10 10  3
      37         -1713.205419662026998              0.1022936087D-02
   current occupation vector 
    18 10 10  3
    18 10 10  3
      38         -1713.205419681725743              0.2109458727D-03
   current occupation vector 
    18 10 10  3
    18 10 10  3
      39         -1713.205419689114478              0.1627263095D-03
   current occupation vector 
    18 10 10  3
    18 10 10  3
      40         -1713.205419690723375              0.6195400198D-04
   current occupation vector 
    18 10 10  3
    18 10 10  3
      41         -1713.205419692407304              0.2093686330D-03
   current occupation vector 
    18 10 10  3
    18 10 10  3
      42         -1713.205419693730164              0.2592475112D-03
   current occupation vector 
    18 10 10  3
    18 10 10  3
      43         -1713.205419694646025              0.2677272962D-03
   current occupation vector 
    18 10 10  3
    18 10 10  3
      44         -1713.205419695239470              0.1817559361D-03
   current occupation vector 
    18 10 10  3
    18 10 10  3
      45         -1713.205419695638739              0.2171925022D-03
   current occupation vector 
    18 10 10  3
    18 10 10  3
      46         -1713.205419696010267              0.1552389604D-03
   current occupation vector 
    18 10 10  3
    18 10 10  3
      47         -1713.205419696299032              0.1155163179D-03
   current occupation vector 
    18 10 10  3
    18 10 10  3
      48         -1713.205419696490480              0.3149262492D-04
   current occupation vector 
    18 10 10  3
    18 10 10  3
      49         -1713.205419696600529              0.1868039468D-04
   current occupation vector 
    18 10 10  3
    18 10 10  3
      50         -1713.205419696637819              0.1540506268D-04
   current occupation vector 
    18 10 10  3
    18 10 10  3
      51         -1713.205419696690115              0.9546169449D-05
   current occupation vector 
    18 10 10  3
    18 10 10  3
      52         -1713.205419696712397              0.1414277314D-04
   current occupation vector 
    18 10 10  3
    18 10 10  3
      53         -1713.205419696724675              0.1384568173D-04
   current occupation vector 
    18 10 10  3
    18 10 10  3
      54         -1713.205419696709214              0.1695878446D-04
   current occupation vector 
    18 10 10  3
    18 10 10  3
      55         -1713.205419696726949              0.2362808222D-04
   current occupation vector 
    18 10 10  3
    18 10 10  3
      56         -1713.205419696743775              0.1328477902D-04
   current occupation vector 
    18 10 10  3
    18 10 10  3
      57         -1713.205419696741956              0.8589342202D-05
   current occupation vector 
    18 10 10  3
    18 10 10  3
      58         -1713.205419696742865              0.1110549043D-04
   current occupation vector 
    18 10 10  3
    18 10 10  3
      59         -1713.205419696736953              0.6969168763D-05
   current occupation vector 
    18 10 10  3
    18 10 10  3
      60         -1713.205419696726949              0.2885601318D-05
   current occupation vector 
    18 10 10  3
    18 10 10  3
      61         -1713.205419696725130              0.2208250982D-05
   current occupation vector 
    18 10 10  3
    18 10 10  3
      62         -1713.205419696741956              0.1358296547D-05
   current occupation vector 
    18 10 10  3
    18 10 10  3
      63         -1713.205419696749686              0.2342744465D-05
   current occupation vector 
    18 10 10  3
    18 10 10  3
      64         -1713.205419696743775              0.3472456191D-06
   current occupation vector 
    18 10 10  3
    18 10 10  3
      65         -1713.205419696723766              0.2508105969D-05
   current occupation vector 
    18 10 10  3
    18 10 10  3
      66         -1713.205419696748322              0.1409906209D-05
   current occupation vector 
    18 10 10  3
    18 10 10  3
      67         -1713.205419696745139              0.1784617615D-05
   current occupation vector 
    18 10 10  3
    18 10 10  3
      68         -1713.205419696746503              0.2097372348D-05
   current occupation vector 
    18 10 10  3
    18 10 10  3
      69         -1713.205419696739682              0.1611502418D-05
   current occupation vector 
    18 10 10  3
    18 10 10  3
      70         -1713.205419696743320              0.1719252670D-05
   current occupation vector 
    18 10 10  3
    18 10 10  3
      71         -1713.205419696739227              0.1598262411D-06
   current occupation vector 
    18 10 10  3
    18 10 10  3
      72         -1713.205419696735134              0.7437169947D-06
   current occupation vector 
    18 10 10  3
    18 10 10  3
      73         -1713.205419696733770              0.3458476256D-06
   current occupation vector 
    18 10 10  3
    18 10 10  3
      74         -1713.205419696738318              0.2261294112D-06
   current occupation vector 
    18 10 10  3
    18 10 10  3
      75         -1713.205419696746503              0.2745425980D-06
   current occupation vector 
    18 10 10  3
    18 10 10  3
      76         -1713.205419696735589              0.2662957921D-06
   current occupation vector 
    18 10 10  3
    18 10 10  3
      77         -1713.205419696753779              0.1684258750D-06
   current occupation vector 
    18 10 10  3
    18 10 10  3
      78         -1713.205419696733316              0.7651066802D-07
   current occupation vector 
    18 10 10  3
    18 10 10  3
      79         -1713.205419696748322              0.2808948896D-07
   current occupation vector 
    18 10 10  3
    18 10 10  3
      80         -1713.205419696734680              0.1504152518D-06
   current occupation vector 
    18 10 10  3
    18 10 10  3
      81         -1713.205419696741956              0.9472869333D-07
   current occupation vector 
    18 10 10  3
    18 10 10  3
      82         -1713.205419696748322              0.6274794329D-07
   current occupation vector 
    18 10 10  3
    18 10 10  3
      83         -1713.205419696754234              0.4753138771D-07
   current occupation vector 
    18 10 10  3
    18 10 10  3
      84         -1713.205419696765603              0.2466896820D-07
   current occupation vector 
    18 10 10  3
    18 10 10  3
      85         -1713.205419696751505              0.4205857351D-07
   current occupation vector 
    18 10 10  3
    18 10 10  3
      86         -1713.205419696751051              0.1724191900D-07
   current occupation vector 
    18 10 10  3
    18 10 10  3
      87         -1713.205419696738318              0.4571930701D-07
   current occupation vector 
    18 10 10  3
    18 10 10  3
      88         -1713.205419696744229              0.1247764825D-07
   current occupation vector 
    18 10 10  3
    18 10 10  3
      89         -1713.205419696746958              0.7457225504D-08
   current occupation vector 
    18 10 10  3
    18 10 10  3
      90         -1713.205419696762419              0.1087122747D-07
   current occupation vector 
    18 10 10  3
    18 10 10  3
      91         -1713.205419696736044              0.3379424740D-08
   current occupation vector 
    18 10 10  3
    18 10 10  3
      92         -1713.205419696749686              0.1434361030D-07
   current occupation vector 
    18 10 10  3
    18 10 10  3
      93         -1713.205419696738772              0.1118235193D-07
   current occupation vector 
    18 10 10  3
    18 10 10  3
      94         -1713.205419696745594              0.2375310171D-08
   current occupation vector 
    18 10 10  3
    18 10 10  3
      95         -1713.205419696742865              0.2071935068D-08
   current occupation vector 
    18 10 10  3
    18 10 10  3
      96         -1713.205419696742410              0.1061976729D-08
   current occupation vector 
    18 10 10  3
    18 10 10  3
      97         -1713.205419696747867              0.9809633106D-09
   current occupation vector 
    18 10 10  3
    18 10 10  3
      98         -1713.205419696752870              0.3353335387D-09
   current occupation vector 
    18 10 10  3
    18 10 10  3
      99         -1713.205419696744684              0.1554496087D-08
   current occupation vector 
    18 10 10  3
    18 10 10  3
     100         -1713.205419696741956              0.1050390885D-08
   current occupation vector 
    18 10 10  3
    18 10 10  3
     101         -1713.205419696767422              0.2697142509D-09
   current occupation vector 
    18 10 10  3
    18 10 10  3
     102         -1713.205419696744229              0.4829141531D-09
   current occupation vector 
    18 10 10  3
    18 10 10  3
     103         -1713.205419696752870              0.3100257828D-09
   current occupation vector 
    18 10 10  3
    18 10 10  3
     104         -1713.205419696760146              0.1790699256D-09
   current occupation vector 
    18 10 10  3
    18 10 10  3
     105         -1713.205419696746958              0.5307629891D-09
   current occupation vector 
    18 10 10  3
    18 10 10  3
     106         -1713.205419696749232              0.3343920696D-09
   current occupation vector 
    18 10 10  3
    18 10 10  3
     107         -1713.205419696750141              0.2141864464D-09
   current occupation vector 
    18 10 10  3
    18 10 10  3

  SCF has converged.

 Density matrix saved to file den.dat
 total electron number:   82.000000000000313     
     E(SCF)=     -1713.205419696750596              0.5466516129D-10


  Final occupancies:

     Alpha population by irrep:  18   10   10    3
      Beta population by irrep:  18   10   10    3


  Eigenvector printing suppressed.

 @PUTMOS-I, Writing converged MOs to NEWMOS. 
 @PUTMOS-I, Symmetry   1 Full Blocks 14 Partial Blocksize   3
 @PUTMOS-I, Symmetry   2 Full Blocks  9 Partial Blocksize   2
 @PUTMOS-I, Symmetry   3 Full Blocks  9 Partial Blocksize   2
 @PUTMOS-I, Symmetry   4 Full Blocks  5 Partial Blocksize   0
 @PUTFOCK-I, Writing converged Fock matrix to NEWFOCK. 
 @PUTFOCK-I, Symmetry   1 Full Blocks 14 Partial Blocksize   3
 @PUTFOCK-I, Symmetry   2 Full Blocks  9 Partial Blocksize   2
 @PUTFOCK-I, Symmetry   3 Full Blocks  9 Partial Blocksize   2
 @PUTFOCK-I, Symmetry   4 Full Blocks  5 Partial Blocksize   0



  ORBITAL EIGENVALUES (ALPHA)  (1H = 27.2113834 eV)

       MO #        E(hartree)               E(eV)           FULLSYM    COMPSYM
       ----   --------------------   --------------------   -------   ---------
    1     1        -261.3267581221       -7111.0626079399      A1        A1 (1)
    2     2         -31.8891953185        -867.7491201279      A1        A1 (1)
    3    60         -27.3812107551        -745.0806238127      B1        B1 (2)
    4    98         -27.3686470012        -744.7387466878      B2        B2 (3)
    5     3         -27.3582130983        -744.4548257570      A1        A1 (1)
    6    61         -20.6849899237        -562.8671914378      E         B1 (2)
    7     4         -20.6849887481        -562.8671594497      E         A1 (1)
    8    99         -20.6502524049        -561.9219354968      E         B2 (3)
    9     5         -20.6502516452        -561.9219148248      E         A1 (1)
   10    62         -11.4044222423        -310.3301060900      E         B1 (2)
   11     6         -11.4044200111        -310.3300453773      E         A1 (1)
   12   100         -11.3822729836        -309.7273941207      E         B2 (3)
   13     7         -11.3822707123        -309.7273323146      E         A1 (1)
   14     8          -4.0766625402        -110.9316273733      A1        A1 (1)
   15    63          -2.6718581511         -72.7049565412      B1        B1 (2)
   16   101          -2.6628077385         -72.4586822931      B2        B2 (3)
   17     9          -2.6449320577         -71.9722602892      A1        A1 (1)
   18    10          -1.5224609772         -41.4282693624      A1        A1 (1)
   19    64          -1.5224080296         -41.4268285860      B1        B1 (2)
   20    11          -1.4868653339         -40.4596626644      A1        A1 (1)
   21   102          -1.4867439255         -40.4563589741      B2        B2 (3)
   22    12          -0.8426739841         -22.9303248638      A1        A1 (1)
   23    65          -0.8216969703         -22.3595112978      B1        B1 (2)
   24    13          -0.7975513054         -21.7024743532      A1        A1 (1)
   25   103          -0.7948941694         -21.6301700053      B2        B2 (3)
   26    14          -0.7065505707         -19.2262184708      A1        A1 (1)
   27   136          -0.6600667351         -17.9613289972      A2        A2 (4)
   28   104          -0.6564734224         -17.8635499893      B2        B2 (3)
   29    66          -0.6522139262         -17.7476432060      B1        B1 (2)
   30    67          -0.6456858926         -17.5700063787      B1        B1 (2)
   31    15          -0.6449276340         -17.5493731146      A1        A1 (1)
   32    16          -0.6235085339         -16.9665297688      A1        A1 (1)
   33   105          -0.6234394142         -16.9646489251      B2        B2 (3)
   34   137          -0.6151794458         -16.7398837597      A2        A2 (4)
   35   106          -0.6088912189         -16.5687724051      B2        B2 (3)
   36    17          -0.5980185350         -16.2729116350      A1        A1 (1)
   37    68          -0.5975235247         -16.2594417206      B1        B1 (2)
   38   138          -0.4303478277         -11.7103597344      A2        A2 (4)
   39    69          -0.4277289841         -11.6390973780      B1        B1 (2)
   40    18          -0.3575743006          -9.7300913867      A1        A1 (1)
   41   107          -0.3159716716          -8.5980263003      B2        B2 (3)
  +++++++++++++++++++++++++++++++++++++++++++++++++++++++++++++++++++++++++++++
   42    19           0.0100340081           0.2730392422      A1        A1 (1)
   43    20           0.0870169978           2.3678528902      A1        A1 (1)
   44    70           0.1077536549           2.9321260158      B1        B1 (2)
   45   108           0.1108061775           3.0151893782      B2        B2 (3)
   46   139           0.1136698215           3.0931130926      A2        A2 (4)
   47    21           0.1281612100           3.4874438228      A1        A1 (1)
   48    71           0.1313646930           3.5746150254      B1        B1 (2)
   49   109           0.1339589450           3.6452082123      B2        B2 (3)
   50    22           0.1557608738           4.2384688557      A1        A1 (1)
   51    72           0.1723661464           4.6903212952      B1        B1 (2)
   52   110           0.1829361557           4.9779458706      B2        B2 (3)
   53   140           0.2159534910           5.8763932412      A2        A2 (4)
   54    23           0.2711696266           7.3789006762      A1        A1 (1)
   55    24           0.2991686723           8.1407934446      A1        A1 (1)
   56   111           0.3024892950           8.2311521812      B2        B2 (3)
   57    25           0.4025610958          10.9542443208      A1        A1 (1)
   58    73           0.4261866552          11.5971284740      B1        B1 (2)
   59    26           0.4732726317          12.8784030343      A1        A1 (1)
   60    74           0.4884054712          13.2901885302      B1        B1 (2)
   61   141           0.4951435589          13.4735412181      A2        A2 (4)
   62   112           0.5037977777          13.7090344855      B2        B2 (3)
   63    27           0.5142714719          13.9940381941      A1        A1 (1)
   64    28           0.5466855662          14.8760705417      A1        A1 (1)
   65    75           0.5659081070          15.3991424691      B1        B1 (2)
   66    29           0.6602287386          17.9657373384      A1        A1 (1)
   67   113           0.6857696947          18.6607420860      B2        B2 (3)
   68   142           0.7203697143          19.6022564844      A2        A2 (4)
   69   114           0.7435554890          20.2331734895      B2        B2 (3)
   70    76           0.7469756670          20.3262412650      B1        B1 (2)
   71    30           0.7533362505          20.4993215421      A1        A1 (1)
   72   115           0.7801251084          21.2282834246      B2        B2 (3)
   73    77           0.8371284799          22.7794240229      B1        B1 (2)
   74    31           0.8429018993          22.9365267507      A1        A1 (1)
   75   143           0.8740830136          23.7850080062      A2        A2 (4)
   76    32           0.8765936250          23.8533252154      A1        A1 (1)
   77    78           0.8849350137          24.0803059428      B1        B1 (2)
   78   116           0.9162197667          24.9316073497      B2        B2 (3)
   79    33           0.9417320198          25.6258310515      A1        A1 (1)
   80    34           0.9946376584          27.0654666670      A1        A1 (1)
   81    79           1.0139359459          27.5905997667      B1        B1 (2)
   82    35           1.0229351371          27.8354802095      A1        A1 (1)
   83   117           1.0303177369          28.0363709619      B2        B2 (3)
   84    36           1.1170646434          30.3968742941      A1        A1 (1)
   85   118           1.2361197053          33.6365272296      B2        B2 (3)
   86   144           1.2447551249          33.8715089440      A2        A2 (4)
   87    80           1.2512784124          34.0490166189      B1        B1 (2)
   88    81           1.2584168566          34.2432635623      B1        B1 (2)
   89   145           1.2629152367          34.3656707084      A2        A2 (4)
   90    37           1.2659579918          34.4484682822      A1        A1 (1)
   91   119           1.2812579584          34.8648015393      B2        B2 (3)
   92    38           1.2838245339          34.9346416112      A1        A1 (1)
   93    82           1.2967835718          35.2872749604      B1        B1 (2)
   94   120           1.3141234609          35.7591173283      B2        B2 (3)
   95   146           1.3442133827          36.5779057277      A2        A2 (4)
   96    39           1.3618752940          37.0585107669      A1        A1 (1)
   97   147           1.3744222539          37.3999309033      A2        A2 (4)
   98   121           1.3775498321          37.4850366329      B2        B2 (3)
   99    40           1.3819809351          37.6056130778      A1        A1 (1)
  100    83           1.3837678491          37.6542374797      B1        B1 (2)
  101   122           1.4413097427          39.2200320071      B2        B2 (3)
  102   148           1.4584282434          39.6858500926      A2        A2 (4)
  103    41           1.4727791171          40.0763572195      A1        A1 (1)
  104    84           1.4780022036          40.2184846278      B1        B1 (2)
  105    85           1.4942870105          40.6616167516      B1        B1 (2)
  106   123           1.5281987582          41.5844023206      B2        B2 (3)
  107    42           1.5306584954          41.6513351737      A1        A1 (1)
  108    86           1.6157323027          43.9663111608      B1        B1 (2)
  109   124           1.6166787985          43.9920666200      B2        B2 (3)
  110    43           1.6717053352          45.4894148080      A1        A1 (1)
  111   149           1.6859145757          45.8760678999      A2        A2 (4)
  112   125           1.7258421989          46.9625537629      B2        B2 (3)
  113    87           1.7443594780          47.4664345445      B1        B1 (2)
  114    44           1.7737951690          48.2674204170      A1        A1 (1)
  115    45           1.8998848973          51.6984963569      A1        A1 (1)
  116    46           2.1054940711          57.2934064143      A1        A1 (1)
  117    88           2.1195889791          57.6769483596      B1        B1 (2)
  118    47           2.1265117208          57.8653257385      A1        A1 (1)
  119   126           2.1448360365          58.3639557202      B2        B2 (3)
  120    89           2.2198724280          60.4057997383      B1        B1 (2)
  121    48           2.2549900260          61.3613981614      A1        A1 (1)
  122   150           2.3518429102          63.9968991266      A2        A2 (4)
  123    49           2.4760211374          67.3759604764      A1        A1 (1)
  124   127           2.4849712981          67.6195067307      B2        B2 (3)
  125    90           2.8406663350          77.2984607545      B1        B1 (2)
  126    91           2.9210150767          79.4848611697      B1        B1 (2)
  127   128           2.9221468125          79.5156572647      B2        B2 (3)
  128    50           2.9227561507          79.5322382005      A1        A1 (1)
  129   151           2.9234498803          79.5511155423      A2        A2 (4)
  130   152           2.9473205704          80.2006700433      A2        A2 (4)
  131   129           2.9486366027          80.2364811042      B2        B2 (3)
  132    92           2.9526717707          80.3462836065      B1        B1 (2)
  133    51           2.9566285040          80.4539517941      A1        A1 (1)
  134    52           2.9844716389          81.2116020118      A1        A1 (1)
  135   130           3.0151503202          82.0464113715      B2        B2 (3)
  136    53           3.2609835134          88.7358726448      A1        A1 (1)
  137   131           3.2863583729          89.4263576760      B2        B2 (3)
  138   153           3.3263266660          90.5139502216      A2        A2 (4)
  139    93           3.3452697116          91.0294166984      B1        B1 (2)
  140    94           3.4864078828          94.8699815886      B1        B1 (2)
  141    54           3.5116249229          95.5561721329      A1        A1 (1)
  142   154           3.5182377585          95.7361165383      A2        A2 (4)
  143   132           3.5276581918          95.9924595605      B2        B2 (3)
  144    55           3.5512308833          96.6339051074      A1        A1 (1)
  145    95           3.6899564808         100.4088205279      B1        B1 (2)
  146   155           3.7941144908         103.2431040740      A2        A2 (4)
  147    56           3.8188591773         103.9164412239      A1        A1 (1)
  148    96           3.8496288323         104.7537261032      B1        B1 (2)
  149    57           3.8687236787         105.2733232903      A1        A1 (1)
  150   133           3.8696503758         105.2985400009      B2        B2 (3)
  151   134           3.9327327006         107.0150973248      B2        B2 (3)
  152    58           4.0559476929         110.3679477210      A1        A1 (1)
  153   135           4.2681507723         116.1422870734      B2        B2 (3)
  154    59           4.4426848083         120.8915996435      A1        A1 (1)
  155    97           4.4513175976         121.1265097834      B1        B1 (2)


  VSCF finished.

 @CHECKOUT-I, Total execution time (CPU/WALL):       14.33/      10.24 seconds.
--executable xvscf finished with status     0 in       10.26 seconds (walltime).
 --invoking executable--
/opt/cfour/2.1/bin/xvtran
 @GETMEM-I,  Allocated   30517 MB of main memory.
  Full RHF integral transformation
  Frozen-core orbitals requested within analytic derivative calculation
  Transformation of IIII integrals :
  1 pass through the AO integral file was required.
     2091586 AO integrals were read.
     2139312 MO integrals were written to HF2.
  Transformation of IIJJ integrals :
  1 pass through the AO integral file was required.
     3768299 AO integrals were read.
     3855141 MO integrals were written to HF2.
  Transformation of IJIJ integrals :
  1 pass through the AO integral file was required.
     7180752 AO integrals were read.
     7347246 MO integrals were written to HF2.
  Transformation of IJKL integrals :
  1 pass through the AO integral file was required.
     4984802 AO integrals were read.
     5111760 MO integrals were written to HF2.
  Summary of active molecular orbitals: 
------------------------------------------------------------------------

  Index      Eigenvalue    Symmetry    Index      Eigenvalue    Symmetry
------------------------------------------------------------------------
     1      -261.3267581        1        79         3.8188592        1
     2       -31.8891953        1        80         3.8687237        1
     3       -27.3582131        1        81         4.0559477        1
     4       -20.6849887        1        82         4.4426848        1
     5       -20.6502516        1        83         0.1077537        2
     6       -11.4044200        1        84         0.1313647        2
     7       -11.3822707        1        85         0.1723661        2
     8        -4.0766625        1        86         0.4261867        2
     9        -2.6449321        1        87         0.4884055        2
    10        -1.5224610        1        88         0.5659081        2
    11        -1.4868653        1        89         0.7469757        2
    12        -0.8426740        1        90         0.8371285        2
    13        -0.7975513        1        91         0.8849350        2
    14        -0.7065506        1        92         1.0139359        2
    15        -0.6449276        1        93         1.2512784        2
    16        -0.6235085        1        94         1.2584169        2
    17        -0.5980185        1        95         1.2967836        2
    18        -0.3575743        1        96         1.3837678        2
    19       -27.3812108        2        97         1.4780022        2
    20       -20.6849899        2        98         1.4942870        2
    21       -11.4044222        2        99         1.6157323        2
    22        -2.6718582        2       100         1.7443595        2
    23        -1.5224080        2       101         2.1195890        2
    24        -0.8216970        2       102         2.2198724        2
    25        -0.6522139        2       103         2.8406663        2
    26        -0.6456859        2       104         2.9210151        2
    27        -0.5975235        2       105         2.9526718        2
    28        -0.4277290        2       106         3.3452697        2
    29       -27.3686470        3       107         3.4864079        2
    30       -20.6502524        3       108         3.6899565        2
    31       -11.3822730        3       109         3.8496288        2
    32        -2.6628077        3       110         4.4513176        2
    33        -1.4867439        3       111         0.1108062        3
    34        -0.7948942        3       112         0.1339589        3
    35        -0.6564734        3       113         0.1829362        3
    36        -0.6234394        3       114         0.3024893        3
    37        -0.6088912        3       115         0.5037978        3
    38        -0.3159717        3       116         0.6857697        3
    39        -0.6600667        4       117         0.7435555        3
    40        -0.6151794        4       118         0.7801251        3
    41        -0.4303478        4       119         0.9162198        3
    42         0.0100340        1       120         1.0303177        3
    43         0.0870170        1       121         1.2361197        3
    44         0.1281612        1       122         1.2812580        3
    45         0.1557609        1       123         1.3141235        3
    46         0.2711696        1       124         1.3775498        3
    47         0.2991687        1       125         1.4413097        3
    48         0.4025611        1       126         1.5281988        3
    49         0.4732726        1       127         1.6166788        3
    50         0.5142715        1       128         1.7258422        3
    51         0.5466856        1       129         2.1448360        3
    52         0.6602287        1       130         2.4849713        3
    53         0.7533363        1       131         2.9221468        3
    54         0.8429019        1       132         2.9486366        3
    55         0.8765936        1       133         3.0151503        3
    56         0.9417320        1       134         3.2863584        3
    57         0.9946377        1       135         3.5276582        3
    58         1.0229351        1       136         3.8696504        3
    59         1.1170646        1       137         3.9327327        3
    60         1.2659580        1       138         4.2681508        3
    61         1.2838245        1       139         0.1136698        4
    62         1.3618753        1       140         0.2159535        4
    63         1.3819809        1       141         0.4951436        4
    64         1.4727791        1       142         0.7203697        4
    65         1.5306585        1       143         0.8740830        4
    66         1.6717053        1       144         1.2447551        4
    67         1.7737952        1       145         1.2629152        4
    68         1.8998849        1       146         1.3442134        4
    69         2.1054941        1       147         1.3744223        4
    70         2.1265117        1       148         1.4584282        4
    71         2.2549900        1       149         1.6859146        4
    72         2.4760211        1       150         2.3518429        4
    73         2.9227562        1       151         2.9234499        4
    74         2.9566285        1       152         2.9473206        4
    75         2.9844716        1       153         3.3263267        4
    76         3.2609835        1       154         3.5182378        4
    77         3.5116249        1       155         3.7941145        4
    78         3.5512309        1
------------------------------------------------------------------------
  -261.32675812211477       -31.889195318451378       -27.358213098308845       -20.684988748116915       -20.650251645228725       -11.404420011122346       -11.382270712285532       -4.0766625401801511       -2.6449320577064741       -1.5224609772112572       -1.4868653338806341      -0.84267398414447670      -0.79755130542750885      -0.70655057069827010      -0.64492763402216735      -0.62350853388772498      -0.59801853495490065      -0.35757430056480677       -27.381210755079259       -20.684989923657490       -11.404422242273801       -2.6718581511444075       -1.5224080296475497      -0.82169697031203071      -0.65221392624939156      -0.64568589256949471      -0.59752352468113379      -0.42772898411508820       -27.368647001159950       -20.650252404909548       -11.382272983618535       -2.6628077385102813       -1.4867439254885346      -0.79489416937706714      -0.65647342241692341      -0.62343941415017579      -0.60889121885251907      -0.31597167163290013      -0.66006673505442637      -0.61517944580945827      -0.43034782768097962        1.0034008129295962E-002   8.7016997828530174E-002  0.12816121001893752       0.15576087380015677       0.27116962661401339       0.29916867234968919       0.40256109583813532       0.47327263171326461       0.51427147191885358       0.54668556622125219       0.66022873862565012       0.75333625052313735       0.84290189930823800       0.87659362498134663       0.94173201982327392       0.99463765840696328        1.0229351371200617        1.1170646433967000        1.2659579917639316        1.2838245339353771        1.3618752939598684        1.3819809351481678        1.4727791171219715        1.5306584954333347        1.6717053352014311        1.7737951690110456        1.8998848973217308        2.1054940710713046        2.1265117207702615        2.2549900260267690        2.4760211374033698        2.9227561506649646        2.9566285040128677        2.9844716388734067        3.2609835134215692        3.5116249228579033        3.5512308833006241        3.8188591772906477        3.8687236787202659        4.0559476928692613        4.4426848082821460       0.10775365488513211       0.13136469296184280       0.17236614641267572       0.42618665517846599       0.48840547115310934       0.56590810701248362       0.74697566699172069       0.83712847994646566       0.88493501373558570        1.0139359458898420        1.2512784123628071        1.2584168566105487        1.2967835718489136        1.3837678491466141        1.4780022035838072        1.4942870104726949        1.6157323027111747        1.7443594780462430        2.1195889790594178        2.2198724280345137        2.8406663350487862        2.9210150767158458        2.9526717706845726        3.3452697115864325        3.4864078828339418        3.6899564807836396        3.8496288322915797        4.4513175975971251       0.11080617747028240       0.13395894500337016       0.18293615570343602       0.30248929502211636       0.50379777771780410       0.68576969467745508       0.74355548896950030       0.78012510839750904       0.91621976667668992        1.0303177368757963        1.2361197053140249        1.2812579583608799        1.3141234608558343        1.3775498320629933        1.4413097427132009        1.5281987581948124        1.6166787984778075        1.7258421989262145        2.1448360365317867        2.4849712981024270        2.9221468124516257        2.9486366027311379        3.0151503201954450        3.2863583729448673        3.5276581917743206        3.8696503758397132        3.9327327005667452        4.2681507722741818       0.11366982145354977       0.21595349103743527       0.49514355885610101       0.72036971425560226       0.87408301358880425        1.2447551249448332        1.2629152367309013        1.3442133826858080        1.3744222538622708        1.4584282434031313        1.6859145757315961        2.3518429102208005        2.9234498802554461        2.9473205703783911        3.3263266659795705        3.5182377584788425        3.7941144908489348     
 @CHECKOUT-I, Total execution time (CPU/WALL):       38.45/       4.89 seconds.
--executable xvtran finished with status     0 in        4.91 seconds (walltime).
 --invoking executable--
/opt/cfour/2.1/bin/xintprc
 @GETMEM-I,  Allocated   30517 MB of main memory.
  @GMOIAA-I, Processing MO integrals for spin case AA.
  @GMOIAA-I, Generation of integral list completed.
                      TYPE                NUMBER
                      ----               --------
                      PPPP               5404472
                      PPPH               7721647
                      PPHH               2765522
                      PHPH               1434216
                      PHHH               1030029
[...]
 C     -0.259 0.0000 -0.0267   -0.0000  0.0081 -0.0000    0.4801  0.0000  0.0480
 O     -0.000-0.3233  0.2161    0.0000  0.3716 -0.2539    0.0000 -0.1733  0.1188
 O     -0.000 0.3233  0.2161   -0.0000  0.3716  0.2539    0.0000  0.1733  0.1188
 O     -0.211-0.0000  0.0226    0.0000 -0.0014 -0.0000    0.3900  0.0000 -0.0423
 O      0.211 0.0000  0.0226    0.0000 -0.0014 -0.0000   -0.3900 -0.0000 -0.0423
            Gradient vector in normal coordinate representation
         ----------------------------------------------------------
   i    W(I)     dE/dQ(i)     dE/dq      dE/dq     [dE/dQ(i)]/w(i)
                              (cm-1)      (eV)        (relative)
         ----------------------------------------------------------
    7    47.67  0.0000000067      0.00234      0.00000  -0.0000000000
    8    90.83 -0.0000000000     -0.00000     -0.00000  -0.0000000000
    9    91.88  0.0000000055      0.00138      0.00000  -0.0000000000
   10    93.31 -0.0000000000     -0.00000     -0.00000  -0.0000000000
   11    94.99  0.0000000000      0.00000      0.00000  -0.0000000000
   12   344.26 -0.0000000000     -0.00000     -0.00000  -0.0000000000
   13   365.48 -0.0000000000     -0.00000     -0.00000  -0.0000000000
   14   368.49 -0.0000000000     -0.00000     -0.00000  -0.0000000000
   15   401.16 -0.0000006669     -0.08019     -0.00001  -0.0000000000
   16   419.44 -0.0000000000     -0.00000     -0.00000  -0.0000000000
   17   462.78  0.0000004435      0.04965      0.00001  -0.0000000000
   18   469.99 -0.0000000000     -0.00000     -0.00000  -0.0000000000
   19   511.24 -0.0000003769     -0.04014     -0.00000  -0.0000000000
   20   562.08 -0.0000009240     -0.09385     -0.00001  -0.0000000000
   21   578.60  0.0000000000      0.00000      0.00000  -0.0000000000
   22   619.50  0.0000000000      0.00000      0.00000  -0.0000000000
   23   637.48 -0.0000000000     -0.00000     -0.00000  -0.0000000000
   24  2020.46  0.0000000000      0.00000      0.00000  -0.0000000000
   25  2021.52 -0.0000005282     -0.02829     -0.00000  -0.0000000000
   26  2035.44  0.0000000000      0.00000      0.00000  -0.0000000000
   27  2102.17 -0.0000000663     -0.00348     -0.00000  -0.0000000000
         ----------------------------------------------------------

                      Normal modes in internal coordinates 
---------------------------------------------------------------------------
              0.013         0.017         0.089         0.574         0.682
---------------------------------------------------------------------------
RDX        0.077171      0.000000     -0.000000     -0.000000      0.000000
RC1        0.000000     -0.000000      0.000000      0.000000     -0.000000
AC1       -0.000000      0.032836     -0.000000     -0.020987      0.000000
RC1        0.000000      0.000000      0.000000     -0.000000      0.000000
AC1        0.000000     -0.032836      0.000000      0.020987     -0.000000
D180       0.000000      0.000000      0.033355      0.000000     -0.000000
RC2        0.000000      0.000000     -0.000000     -0.000000      0.000000
AC2        0.000000      0.000000      0.032685      0.000000     -0.000000
D90        0.000000     -0.002746     -0.016678      0.001756      0.000000
RC2        0.000000      0.000000      0.000000      0.000000     -0.000000
AC2        0.000000     -0.000000     -0.032685     -0.000000      0.000000
D90       -0.000000      0.002746      0.016678     -0.001756      0.000000
RO1        0.000000      0.000000      0.000000     -0.000000      0.000000
AO1       -0.000000      0.032836     -0.000000     -0.020988      0.000000
D180      -0.000000     -0.000000     -0.035465     -0.000000     -0.000000
RO1        0.000000     -0.000000      0.000000      0.000000     -0.000000
AO1        0.000000     -0.032836      0.000000      0.020988     -0.000000
D180       0.000000      0.000000      0.035465      0.000000     -0.000000
RO2        0.000000      0.000000     -0.000000     -0.000000      0.000000
AO2        0.000000      0.000000      0.032685      0.000000     -0.000000
D180       0.000000     -0.005851      0.000000      0.003740      0.000000
RO2        0.000000      0.000000      0.000000      0.000000     -0.000000
AO2        0.000000     -0.000000     -0.032685     -0.000000      0.000000
D180      -0.000000      0.005851     -0.000000     -0.003740      0.000000
---------------------------------------------------------------------------
              0.740        47.667        90.831        91.882        93.307
---------------------------------------------------------------------------
RDX       -0.000000     -0.371391      0.000000     -0.718787      0.000000
RC1       -0.000000     -0.003429      0.000000      0.036543     -0.056361
AC1        0.000000     -0.195390      0.000000      0.221450     -0.166788
RC1       -0.000000     -0.003429     -0.000000      0.036543      0.056361
AC1       -0.000000     -0.195390     -0.000000      0.221450      0.166788
D180      -0.019156      0.000000     -0.316743     -0.000000     -0.000000
RC2        0.000000      0.013858      0.147460     -0.005463      0.000000
AC2       -0.018770      0.348046      0.261952      0.161627      0.000000
D90        0.009578     -0.000000      0.158371      0.000000      0.250266
RC2       -0.000000      0.013858     -0.147460     -0.005463     -0.000000
AC2        0.018770      0.348046     -0.261952      0.161627     -0.000000
D90       -0.009578      0.000000     -0.158371     -0.000000     -0.250266
RO1       -0.000000     -0.023351      0.000000      0.075420     -0.055940
AO1        0.000000     -0.236491     -0.000000      0.317353     -0.144748
D180       0.020368     -0.000000      0.456459      0.000000      0.000000
RO1       -0.000000     -0.023351     -0.000000      0.075420      0.055940
AO1       -0.000000     -0.236491     -0.000000      0.317353      0.144748
D180      -0.020368      0.000000     -0.456459     -0.000000     -0.000000
RO2        0.000000      0.002956      0.130389     -0.014268      0.000000
AO2       -0.018770      0.463719      0.330207      0.241949     -0.000000
D180      -0.000000     -0.000000     -0.000000      0.000000      0.618297
RO2       -0.000000      0.002956     -0.130389     -0.014268     -0.000000
AO2        0.018770      0.463719     -0.330207      0.241949     -0.000000
D180       0.000000      0.000000      0.000000     -0.000000     -0.618297
---------------------------------------------------------------------------
             94.993       344.265       365.480       368.494       401.163
---------------------------------------------------------------------------
RDX       -0.000000      0.000000     -0.000000     -0.000000     -0.015320
RC1        0.000000      0.000000     -0.000000      0.094078     -0.169359
AC1        0.000000      0.000000      0.000000     -0.559235      0.029459
RC1       -0.000000     -0.000000     -0.000000     -0.094078     -0.169359
AC1        0.000000      0.000000     -0.000000      0.559235      0.029459
D180      -0.000000     -0.295637      0.000000      0.000000     -0.000000
RC2        0.000000     -0.309273     -0.000000     -0.000000     -0.445352
AC2        0.000000     -0.399648      0.000000      0.000000     -0.054792
D90        0.625503      0.147818      0.106544      0.055240      0.000000
RC2       -0.000000      0.309273     -0.000000     -0.000000     -0.445352
AC2        0.000000      0.399648     -0.000000     -0.000000     -0.054792
D90        0.625503     -0.147818      0.106544     -0.055240     -0.000000
RO1        0.000000     -0.000000     -0.000000      0.395061     -0.195540
AO1        0.000000     -0.000000     -0.000000      0.127096     -0.002910
D180      -0.257878      0.093682      0.554886      0.000000      0.000000
RO1       -0.000000     -0.000000      0.000000     -0.395061     -0.195540
AO1        0.000000      0.000000      0.000000     -0.127096     -0.002910
D180      -0.257878     -0.093682      0.554886      0.000000     -0.000000
RO2        0.000000     -0.357175     -0.000000     -0.000000     -0.480107
AO2        0.000000      0.206714     -0.000000      0.000000      0.015651
D180       0.205536      0.000000      0.425147      0.055926     -0.000000
RO2       -0.000000      0.357175     -0.000000     -0.000000     -0.480107
AO2        0.000000     -0.206714      0.000000     -0.000000      0.015651
D180       0.205536      0.000000      0.425147     -0.055926     -0.000000
---------------------------------------------------------------------------
            419.442       462.782       469.994       511.236       562.079
---------------------------------------------------------------------------
RDX       -0.000000     -0.150575      0.000000     -0.133294     -0.407269
RC1       -0.000000     -0.307690      0.482116     -0.489155     -0.252653
AC1        0.000000      0.183543     -0.036103     -0.114726      0.289419
RC1       -0.000000     -0.307690     -0.482116     -0.489155     -0.252653
AC1        0.000000      0.183543      0.036103     -0.114726      0.289419
D180       0.228320      0.000000     -0.000000      0.000000     -0.000000
RC2       -0.468677      0.299096     -0.000000      0.085121     -0.029756
AC2        0.081076     -0.117598      0.000000      0.076280      0.354312
D90       -0.114160     -0.000000     -0.107199     -0.000000      0.000000
RC2        0.468677      0.299096     -0.000000      0.085121     -0.029756
AC2       -0.081076     -0.117598      0.000000      0.076280      0.354312
D90        0.114160      0.000000      0.107199      0.000000     -0.000000
RO1       -0.000000     -0.404833      0.499714     -0.460770     -0.375500
AO1       -0.000000     -0.004939     -0.061407      0.055250      0.030363
D180      -0.088813      0.000000     -0.000000     -0.000000      0.000000
RO1       -0.000000     -0.404833     -0.499714     -0.460770     -0.375500
AO1        0.000000     -0.004939      0.061407      0.055250      0.030363
D180       0.088813      0.000000     -0.000000      0.000000     -0.000000
RO2       -0.468793      0.298719     -0.000000      0.100208     -0.022269
AO2        0.083762      0.062187     -0.000000      0.014635      0.025074
D180      -0.000000     -0.000000     -0.035832     -0.000000     -0.000000
RO2        0.468793      0.298719     -0.000000      0.100208     -0.022269
AO2       -0.083762      0.062187     -0.000000      0.014635      0.025074
D180       0.000000      0.000000      0.035832      0.000000     -0.000000
---------------------------------------------------------------------------
            578.599       619.496       637.476      2020.456      2021.515
---------------------------------------------------------------------------
RDX        0.000000      0.000000      0.000000      0.000000     -0.006337
RC1       -0.000000      0.000000      0.439969      0.000000     -0.512271
AC1       -0.000000     -0.000000     -0.056544     -0.000000      0.016838
RC1        0.000000      0.000000     -0.439969      0.000000     -0.512271
AC1       -0.000000     -0.000000      0.056544     -0.000000      0.016838
D180       0.000000     -0.360752      0.000000     -0.004402     -0.000000
RC2        0.000000     -0.408544      0.000000     -0.569257      0.275859
AC2       -0.000000      0.177191     -0.000000     -0.001368      0.003322
D90        0.545721      0.180376      0.211643      0.002201      0.000000
RC2       -0.000000      0.408544     -0.000000      0.569257      0.275859
AC2       -0.000000     -0.177191      0.000000      0.001368      0.003322
D90        0.545721     -0.180376     -0.211643     -0.002201     -0.000000
RO1       -0.000000      0.000000      0.429895     -0.000000      0.351554
AO1        0.000000     -0.000000     -0.100460      0.000000     -0.003314
D180       0.319461      0.147070      0.000000      0.002204      0.000000
RO1        0.000000      0.000000     -0.429895     -0.000000      0.351554
AO1       -0.000000     -0.000000      0.100460      0.000000     -0.003314
D180       0.319461     -0.147070      0.000000     -0.002204     -0.000000
RO2       -0.000000     -0.412595     -0.000000      0.419426     -0.193813
AO2       -0.000000      0.110564     -0.000000      0.002701      0.000700
D180      -0.316439      0.000000      0.252062      0.000000      0.000000
RO2       -0.000000      0.412595      0.000000     -0.419426     -0.193813
AO2       -0.000000     -0.110564      0.000000     -0.002701      0.000700
D180      -0.316439     -0.000000     -0.252062     -0.000000      0.000000
---------------------------------------------------------------------------
           2035.441      2102.167
---------------------------------------------------------------------------
RDX        0.000000     -0.005344
RC1        0.579188     -0.277540
AC1       -0.022924      0.011743
RC1       -0.579188     -0.277540
AC1        0.022924      0.011743
D180       0.000000     -0.000000
RC2       -0.000000     -0.508363
AC2        0.000000     -0.000845
D90       -0.000086      0.000000
RC2        0.000000     -0.508363
AC2       -0.000000     -0.000845
D90        0.000086      0.000000
RO1       -0.404972      0.188730
AO1        0.003285     -0.001892
D180      -0.000000     -0.000000
RO1        0.404972      0.188730
AO1       -0.003285     -0.001892
D180       0.000000     -0.000000
RO2        0.000000      0.358832
AO2        0.000000      0.001807
D180       0.001732     -0.000000
RO2       -0.000000      0.358832
AO2       -0.000000      0.001807
D180      -0.001732     -0.000000
---------------------------------------------------------------------------

  ----------------------------------------------------------------
                    Dipole Moment Function
                   (Normal Coordinate Basis)
  ----------------------------------------------------------------
    Mode     Symmetry    d(Mu(x))/dQ   d(Mu(y))/dQ   d(Mu(z))/dQ
  ----------------------------------------------------------------
     Q7          A1       -0.000000      0.000000      0.002498
     Q8          B1        0.063977      0.000000     -0.000000
     Q9          A1        0.000000     -0.000000      0.019528
     Q10         B2        0.000000     -0.037849     -0.000000
     Q11         A2        0.000000      0.000000      0.000000
     Q12         B1       -0.041135      0.000000      0.000000
     Q13         A2        0.000000      0.000000      0.000000
     Q14         B2       -0.000000     -0.062074      0.000000
     Q15         A1        0.000000      0.000000      0.023978
     Q16         B1       -0.253405      0.000000      0.000000
     Q17         A1       -0.000000     -0.000000     -0.048424
     Q18         B2        0.000000      0.009499      0.000000
     Q19         A1       -0.000000      0.000000      0.013415
     Q20         A1       -0.000000     -0.000000     -0.147588
     Q21         A2        0.000000      0.000000      0.000000
     Q22         B1       -0.296657     -0.000000      0.000000
     Q23         B2       -0.000000     -0.418208      0.000000
     Q24         B1       -1.275660      0.000000      0.000000
     Q25         A1       -0.000000     -0.000000     -0.520393
     Q26         B2       -0.000000     -0.714776      0.000000
     Q27         A1        0.000000     -0.000000     -0.015867
  ----------------------------------------------------------------
---------------------------------------------------------------------------
------------------------------------------------------------
        Parameter                (MHz)                 (CM-1)
------------------------------------------------------------

           R6                -.294691E-04           -.982984E-09
           R5                -.166492E-03           -.555358E-08
           SI                            0.276636E+01

  A-reduced centrifugal distortion parameters (Ir representation) 

           DJ                0.105481E-03           0.351847E-08
           DK                -.614883E-03           -.205103E-07
           DJK               0.888901E-03           0.296505E-07
           DELJ              0.164419E-03           0.548444E-08
           DELK              -.320192E-03           -.106805E-07
           DELJK             0.535271E-03           0.178547E-07
           delJ              0.414763E-04           0.138350E-08
           delK              0.659073E-03           0.219843E-07

  S-reduced centrifugal distortion parameters (Ir representation) 

           DJ                0.452965E-04           0.151093E-08
           DK                -.915806E-03           -.305480E-07
           DJK               0.125001E-02           0.416958E-07
           D1                -.414763E-04           -.138350E-08
           D2                -.595614E-04           -.198675E-08
------------------------------------------------------------
   Rotationally projected vibrational frequencies 
            1               0.0000i
            2               0.0000i
            3               0.0000i
            4               0.0000 
            5               0.0000 
            6               0.0000 
            7              47.6673 
            8              90.8309 
            9              91.8816 
           10              93.3073 
           11              94.9933 
           12             344.2649 
           13             365.4799 
           14             368.4943 
           15             401.1631 
           16             419.4421 
           17             462.7821 
           18             469.9936 
           19             511.2362 
           20             562.0790 
           21             578.5986 
           22             619.4963 
           23             637.4756 
           24            2020.4555 
           25            2021.5155 
           26            2035.4413 
           27            2102.1673 
  Zero-point energy:   20.4983 kcal/mol =   85.7649 kJ/mol =    7169.383 cm-1 

  Finite temperature thermodynamic corrections:
=======================================================
Temperature     Entropy       Enthalpy     Gibbs Energy
    (K)        (J/(mol K))    (kJ/mol)      (kJ/mol) 
=======================================================
    298.15      411.1108       27.8985      -94.6742
    100.00      294.6729        5.6151      -23.8522
    200.00      360.0794       15.2747      -56.7412
    300.00      411.9752       28.1570      -95.4355
    400.00      454.2846       42.8971     -138.8167
    500.00      489.6312       58.7544     -186.0612
    600.00      519.9782       75.4098     -236.5771
    700.00      546.6166       92.6979     -289.9337
    800.00      570.3882      110.5054     -345.8052
    900.00      591.8638      128.7424     -403.9350
   1000.00      611.4499      147.3348     -464.1150
   1100.00      629.4489      166.2217     -526.1721
   1200.00      646.0939      185.3530     -589.9597
   1300.00      661.5694      204.6882     -655.3520
   1400.00      676.0244      224.1945     -722.2396
   1500.00      689.5812      243.8449     -790.5269
   1600.00      702.3420      263.6178     -860.1294
   1700.00      714.3922      283.4951     -930.9717
   1800.00      725.8049      303.4623    -1002.9866
   1900.00      736.6424      323.5070    -1076.1135
   2000.00      746.9584      343.6191    -1150.2977
=======================================================
 @CHECKOUT-I, Total execution time (CPU/WALL):        0.69/       0.07 seconds.
--executable xjoda finished with status     0 in        0.10 seconds (walltime).
  The final electronic energy is     -1714.953300710073563 a.u. 
  This computation required                        96508.37 seconds (walltime).
Attempting to clean /scratch/jearias... save is False. TIME: Sat 23 Aug 2025 05:44:43 PM PDT
Total of 96508 seconds elapsed for this process.
